VARIABLES="w (rad/s)"  
"abs(F   1   1)" "angle(F   1   1)"
"abs(F   1   2)" "angle(F   1   2)"
"abs(F   1   3)" "angle(F   1   3)"
"abs(F   1   4)" "angle(F   1   4)"
"abs(F   1   5)" "angle(F   1   5)"
"abs(F   1   6)" "angle(F   1   6)"
Zone t="Diffraction force - beta =   0.000 deg",I=    20,F=POINT
  0.2000000E+00  0.1780562E+06 -0.1567873E+01  0.8699983E-01  0.4556157E+00  0.4765560E+07 -0.2882448E+01  0.7272214E+01  0.3069122E+01  0.1110491E+08  0.1563420E+01  0.4378075E+00  0.3104110E+01
  0.2947368E+00  0.2059994E+06 -0.1631990E+01  0.2888587E+00  0.2989549E+01  0.8788496E+07 -0.2700313E+01  0.6703555E+01 -0.2207977E+01  0.7297123E+08  0.1596471E+01  0.1833612E+01  0.2749893E+01
  0.3894737E+00  0.2923503E+06  0.2459886E+01  0.2952196E+00  0.2274112E+01  0.1101123E+08 -0.2549906E+01  0.7707054E+01  0.2169749E+01  0.2281385E+09  0.1711268E+01  0.4251235E+01  0.1484802E+01
  0.4842105E+00  0.1367179E+07  0.2356422E+01  0.3261197E+00 -0.1501142E+01  0.9582495E+07 -0.2456133E+01  0.1279155E+01 -0.7561178E+00  0.4365958E+09  0.1879089E+01  0.1514238E+02 -0.1810928E+01
  0.5789474E+00  0.2266918E+07  0.2395336E+01  0.1495337E+00  0.1510264E+01  0.5115309E+07 -0.2417409E+01  0.1022811E+02 -0.2663706E+01  0.5305242E+09  0.2034337E+01  0.2876779E+02 -0.2413179E+00
  0.6736842E+00  0.2031450E+07  0.2259796E+01  0.1232074E+00 -0.1222025E+01  0.7234790E+06 -0.2686567E+00  0.3718473E+01  0.3057276E+01  0.3773453E+09  0.2122236E+01  0.1268480E+02 -0.3595477E+00
  0.7684210E+00  0.4264402E+06  0.6814328E-01  0.2731366E+00  0.1313490E+01  0.3836164E+07  0.4731433E+00  0.2740552E+01 -0.1711454E+01  0.7740227E+08  0.2296786E+01  0.1013799E+02  0.1098674E+01
  0.8631579E+00  0.3356648E+07 -0.6209781E+00  0.6641499E-01  0.4182243E+00  0.2506334E+07  0.3954196E+00  0.1654215E+01  0.4198799E+00  0.1694764E+09 -0.1174021E+01  0.3690568E+01  0.6610432E+00
  0.9578947E+00  0.2633276E+07 -0.5939856E+00  0.3449747E-01  0.2432966E+01  0.1114037E+07 -0.2433892E+01  0.1988105E+01  0.2871049E+01  0.1409842E+09 -0.1207932E+01  0.2715282E+01 -0.2449787E+00
  0.1052631E+01  0.2475607E+07  0.2814741E+01  0.2501136E-01 -0.1651487E+00  0.1794489E+07 -0.2699408E+01  0.1049422E+01  0.3353805E+00  0.4463166E+08  0.2133222E+01  0.6012452E+01  0.4048918E+00
  0.1147368E+01  0.2776784E+07  0.2892008E+01  0.2309923E-01 -0.2253113E+01  0.4420135E+06  0.3855053E+00  0.1238435E+01 -0.2755710E+01  0.7291587E+08  0.1814379E+01  0.4361981E+00  0.2976444E+01
  0.1242105E+01  0.2270589E+07 -0.1644829E+00  0.5721679E-02 -0.2582993E+01  0.8818765E+06  0.3867420E+00  0.8966705E+00  0.2000559E+01  0.3463626E+08 -0.8833238E+00  0.2799046E+00 -0.2553590E+01
  0.1336842E+01  0.1125990E+07 -0.1442305E+00  0.9144396E-02 -0.6078020E+00  0.4461615E+06 -0.2529095E+01  0.5782097E+00  0.2848406E+01  0.3667498E+08 -0.1357647E+01  0.1002632E+01  0.1570796E+01
  0.1431579E+01  0.2206308E+07  0.2913819E+01  0.8503862E-02  0.1651487E+00  0.2222765E+06  0.3140023E+01  0.4256617E+00  0.1716281E+00  0.3813902E+08  0.1965147E+01  0.8947369E-01  0.0000000E+00
  0.1526316E+01  0.9085236E+06 -0.3649121E+00  0.1819439E-01  0.2530867E+01  0.3865125E+06  0.3266682E+00  0.5030670E+00 -0.5625252E+00  0.1100984E+08 -0.1304979E+01  0.8655679E+00  0.2062172E+01
  0.1621053E+01  0.4513703E+06 -0.1594557E+00  0.1001215E-01  0.3217506E+00  0.2641969E+06 -0.2693209E+01  0.1564668E+00  0.4726971E+00  0.1226734E+08 -0.1806260E+01  0.1418421E+01  0.0000000E+00
  0.1715789E+01  0.1212498E+07  0.2889143E+01  0.1676753E-01  0.1608279E+01  0.8761768E+05  0.6002162E+00  0.7592041E-01 -0.2756988E+01  0.1583917E+08  0.1165468E+01  0.1609561E+01 -0.3106191E+01
  0.1810526E+01  0.1255551E+07 -0.2556556E+00  0.2652138E-02 -0.3141593E+01  0.7473647E+05  0.4739433E-02  0.1231595E+00  0.2044075E+01  0.1612107E+08 -0.1903723E+01  0.1012115E+01  0.1107149E+01
  0.1905263E+01  0.9494221E+06  0.2845591E+01  0.1084912E-01 -0.1030377E+01  0.2161884E+06 -0.3005405E+01  0.1056827E+00  0.6417406E+00  0.9963393E+07  0.1308766E+01  0.5780237E+00 -0.9685090E+00
  0.2000000E+01  0.6468077E+06 -0.3861486E+00  0.0000000E+00  0.0000000E+00  0.2761193E+06  0.7796952E-02  0.5888600E-01  0.3041924E+01  0.6071152E+07 -0.1794589E+01  0.7603453E+00 -0.1735945E+01
Zone t="Diffraction force - beta =  20.000 deg",I=    20,F=POINT
  0.2000000E+00  0.1682402E+06 -0.1567876E+01  0.5053570E+06 -0.1567886E+01  0.4776980E+07 -0.2882626E+01  0.9667804E+06 -0.1571278E+01  0.1045149E+08  0.1563401E+01  0.2917023E+07  0.2394832E-04
  0.2947368E+00  0.2020179E+06 -0.1629086E+01  0.1110426E+07 -0.1544173E+01  0.8876168E+07 -0.2700828E+01  0.2234700E+07 -0.1572373E+01  0.6893768E+08  0.1596185E+01  0.1361276E+08  0.1019940E-02
  0.3894737E+00  0.2556830E+06  0.2567658E+01  0.1874534E+07 -0.1453539E+01  0.1134913E+08 -0.2550020E+01  0.3942605E+07 -0.1562798E+01  0.2177818E+09  0.1709983E+01  0.4045844E+08  0.1335239E-01
  0.4842105E+00  0.1251462E+07  0.2416217E+01  0.2363366E+07 -0.1243237E+01  0.1035035E+08 -0.2451499E+01  0.5282215E+07 -0.1505684E+01  0.4270282E+09  0.1876262E+01  0.9090771E+08  0.8332951E-01
  0.5789474E+00  0.2149948E+07  0.2476016E+01  0.1863772E+07 -0.8821887E+00  0.6220141E+07 -0.2409122E+01  0.4336968E+07 -0.1351646E+01  0.5469068E+09  0.2032224E+01  0.1518937E+09  0.2993056E+00
  0.6736842E+00  0.2058984E+07  0.2340464E+01  0.7184010E+06  0.2620943E+00  0.8869588E+06 -0.1734292E+01  0.9225271E+06  0.3614939E+00  0.4363905E+09  0.2132096E+01  0.1540636E+09  0.6841297E+00
  0.7684210E+00  0.5466864E+06  0.1517663E+01  0.1366590E+07  0.2026373E+01  0.3542322E+07  0.4710482E+00  0.5536576E+07  0.1712815E+01  0.1553076E+09  0.2229501E+01  0.7648142E+08  0.1398121E+01
  0.8631579E+00  0.2528764E+07 -0.4432312E+00  0.1307760E+07  0.2689656E+01  0.3286719E+07  0.4664086E+00  0.5335200E+07  0.2010996E+01  0.1286148E+09 -0.1222132E+01  0.7609796E+08 -0.2972557E+01
  0.9578947E+00  0.3045844E+07 -0.5623091E+00  0.7012965E+06 -0.2057871E+01  0.1821012E+06 -0.1355464E+01  0.2310962E+07 -0.1992266E+01  0.1765423E+09 -0.1151247E+01  0.8836314E+08 -0.2165954E+01
  0.1052631E+01  0.8003994E+06 -0.2879212E+01  0.9589810E+06 -0.7123789E+00  0.1939945E+07 -0.2626907E+01  0.5954756E+07 -0.1205563E+01  0.1338237E+08 -0.1239179E+01  0.4805000E+08 -0.5831961E+00
  0.1147368E+01  0.2976468E+07  0.2904998E+01  0.5397981E+06  0.8784645E+00  0.2449030E+06  0.2497190E+01  0.1452332E+07  0.6471964E+00  0.8184753E+08  0.1903376E+01  0.7149603E+08  0.7832297E+00
  0.1242105E+01  0.3940422E+06  0.3887519E+00  0.6644751E+06  0.2451432E+01  0.9383027E+06  0.5119110E+00  0.4830119E+07  0.2058690E+01  0.2041397E+08  0.1681986E+01  0.3787235E+08  0.2719448E+01
  0.1336842E+01  0.1990122E+07 -0.1078615E+00  0.4247621E+06 -0.1680811E+01  0.1387088E+06 -0.7095115E+00  0.1665184E+07 -0.1557197E+01  0.4965106E+08 -0.1245182E+01  0.4915741E+08 -0.2120615E+01
  0.1431579E+01  0.1104958E+07 -0.2977665E+01  0.3439638E+06 -0.4543324E+00  0.4281848E+06 -0.2983135E+01  0.2497420E+07 -0.1004216E+01  0.2363686E+07  0.1242093E+01  0.3985921E+08  0.5045308E+00
  0.1526316E+01  0.3435272E+06  0.1285999E+01  0.2978558E+06  0.2824633E+01  0.1475906E+06 -0.5075053E-01  0.2064530E+07  0.2272740E+01  0.4256688E+08  0.1372625E+01  0.1554399E+08  0.1779098E+01
  0.1621053E+01  0.5212922E+06  0.2751321E+00  0.4857424E+05 -0.1588253E+01  0.2112505E+06  0.5859173E+00  0.3807747E+05  0.9490368E+00  0.2786297E+08 -0.2230086E+01  0.2068907E+08 -0.1716719E+01
  0.1715789E+01  0.4142788E+06 -0.2371440E+01  0.2658442E+04  0.2841657E+01  0.3990993E+06 -0.2693538E+01  0.7849416E+06 -0.1413359E+01  0.1102609E+08  0.4208001E+00  0.6189860E+07  0.1232496E+01
  0.1810526E+01  0.3339417E+06  0.1869898E+01  0.4601400E+05  0.5040405E+00  0.4505310E+06  0.2774225E+00  0.8081306E+06  0.1484499E+01  0.8058288E+07  0.2413310E+01  0.1908756E+07 -0.5330835E-02
  0.1905263E+01  0.4398883E+06 -0.7661684E+00  0.5401649E+05 -0.2751441E+01  0.3554806E+06  0.3010165E+01  0.5265084E+06 -0.1898967E+01  0.7735612E+07 -0.1130741E+01  0.5895446E+07  0.3034052E+01
  0.2000000E+01  0.4471636E+06  0.2474992E+01  0.4083057E+05 -0.1886622E+00  0.2051972E+06 -0.5355713E+00  0.1928961E+06  0.5467306E+00  0.6575472E+07  0.1890571E+01  0.8612329E+07  0.2207583E+00
Zone t="Diffraction force - beta =  40.000 deg",I=    20,F=POINT
  0.2000000E+00  0.1390594E+06 -0.1567885E+01  0.9533131E+06 -0.1567885E+01  0.4805967E+07 -0.2883076E+01  0.1824024E+07 -0.1571282E+01  0.8553819E+07  0.1563350E+01  0.4478418E+07  0.2117726E-04
  0.2947368E+00  0.1823721E+06 -0.1622625E+01  0.2124360E+07 -0.1544129E+01  0.9100457E+07 -0.2702113E+01  0.4279420E+07 -0.1572374E+01  0.5696124E+08  0.1595464E+01  0.2106208E+08  0.1021359E-02
  0.3894737E+00  0.1820490E+06  0.2927241E+01  0.3725013E+07 -0.1453157E+01  0.1223179E+08 -0.2550349E+01  0.7870189E+07 -0.1562811E+01  0.1846950E+09  0.1706776E+01  0.6390811E+08  0.1342063E-01
  0.4842105E+00  0.9569063E+06  0.2604773E+01  0.5114037E+07 -0.1243527E+01  0.1245013E+08 -0.2441242E+01  0.1164970E+08 -0.1507033E+01  0.3844179E+09  0.1869347E+01  0.1502248E+09  0.8412913E-01
  0.5789474E+00  0.1806843E+07  0.2737864E+01  0.4864174E+07 -0.9162478E+00  0.9500063E+07 -0.2389576E+01  0.1240568E+08 -0.1380985E+01  0.5568476E+09  0.2027140E+01  0.2738948E+09  0.3024898E+00
  0.6736842E+00  0.1841220E+07  0.2677993E+01  0.2684656E+07 -0.3783069E+00  0.4548601E+07 -0.2308487E+01  0.6834220E+07 -0.1128717E+01  0.5641118E+09  0.2151944E+01  0.3258759E+09  0.6738195E+00
  0.7684210E+00  0.1414805E+07  0.2204272E+01  0.1385939E+07  0.1537197E+01  0.1076453E+07  0.1030126E+00  0.4271298E+07  0.1514671E+01  0.3787739E+09  0.2207609E+01  0.2211926E+09  0.1107379E+01
  0.8631579E+00  0.1170057E+07  0.1070034E+01  0.2079181E+07  0.2533993E+01  0.3669336E+07  0.5671586E+00  0.1078045E+08  0.1873656E+01  0.9594078E+08  0.2415029E+01  0.7281139E+08  0.2267864E+01
  0.9578947E+00  0.1519628E+07 -0.1881862E+00  0.1044256E+07  0.3131660E+01  0.2860670E+07  0.5568206E+00  0.7476278E+07  0.1920586E+01  0.1263319E+09 -0.1090373E+01  0.9178283E+08 -0.2368526E+01
  0.1052631E+01  0.2299918E+07 -0.5464885E+00  0.4130604E+06 -0.1267222E+01  0.1426958E+06 -0.4420139E+00  0.1661168E+07 -0.1330959E+01  0.1448402E+09 -0.1067920E+01  0.4622257E+08 -0.2033016E+01
  0.1147368E+01  0.4679712E+06 -0.8138307E+00  0.2588329E+06 -0.1371617E+01  0.1146101E+07 -0.2794209E+01  0.6891450E+07 -0.1469142E+01  0.1897547E+08 -0.1561989E+01  0.6546366E+07  0.2408886E+00
  0.1242105E+01  0.1637660E+07  0.3089445E+01  0.1180595E+06 -0.2002143E+01  0.5908829E+06 -0.2970800E+01  0.3214496E+07 -0.1530288E+01  0.4851364E+08  0.1939888E+01  0.3075512E+08 -0.2300206E+00
  0.1336842E+01  0.7107068E+06  0.2399933E+01  0.3378284E+06  0.7022304E+00  0.2712239E+06 -0.5064831E+00  0.3785722E+07  0.1532489E+01  0.5312237E+08  0.2070361E+01  0.1949490E+08 -0.2102259E+00
  0.1431579E+01  0.7738227E+06 -0.6376351E+00  0.3737763E+06  0.1058890E+01  0.4810108E+06  0.6312764E+00  0.3227618E+07  0.1426787E+01  0.4345088E+08 -0.1130895E+01  0.1803341E+08  0.2610550E+01
  0.1526316E+01  0.4369080E+06  0.1475668E+00  0.2460525E+06  0.2975865E+01  0.2348127E+06 -0.2497877E+01  0.1696983E+07 -0.1873394E+01  0.7948670E+07 -0.6862525E+00  0.1649390E+08  0.3075747E+01
  0.1621053E+01  0.3195760E+06 -0.2290939E+01  0.1466342E+06 -0.1906803E+01  0.8365109E+05 -0.2963019E+01  0.1501466E+07 -0.1582654E+01  0.9783626E+07  0.1465806E+01  0.1418032E+08 -0.1571512E+01
  0.1715789E+01  0.3253762E+05  0.2118955E+01  0.1995546E+06  0.7641840E-01  0.1650390E+06  0.8345388E+00  0.1518791E+07  0.9430792E+00  0.1478589E+07  0.1747107E+01  0.8513340E+07  0.1196460E+01
  0.1810526E+01  0.1526445E+06  0.2088125E+01  0.3347702E+05  0.1054246E+00  0.1542362E+05 -0.7515756E+00  0.4364988E+06 -0.2614210E+01  0.2636678E+07  0.1027728E+01  0.1190621E+08  0.7904140E+00
  0.1905263E+01  0.1168756E+06 -0.4269330E+00  0.1793300E+06  0.2700832E+01  0.5097312E+04  0.2545279E+01  0.2532015E+06 -0.2772999E+01  0.1161172E+07 -0.1781141E+01  0.1624222E+08 -0.2848116E+01
  0.2000000E+01  0.6219921E+05 -0.2466633E+01  0.2339308E+06 -0.7970694E+00  0.4136823E+05  0.2896647E+01  0.4481848E+06 -0.4700783E+00  0.1646824E+07 -0.1798952E+01  0.6001105E+07 -0.1777785E+00
Zone t="Diffraction force - beta =  60.000 deg",I=    20,F=POINT
  0.2000000E+00  0.9218766E+05 -0.1567895E+01  0.1289850E+07 -0.1567884E+01  0.4839050E+07 -0.2883583E+01  0.2468348E+07 -0.1571289E+01  0.5608168E+07  0.1563292E+01  0.3947541E+07  0.2333098E-04
  0.2947368E+00  0.1324592E+06 -0.1616523E+01  0.2920068E+07 -0.1544080E+01  0.9359549E+07 -0.2703546E+01  0.5888661E+07 -0.1572373E+01  0.3775056E+08  0.1594650E+01  0.1872901E+08  0.1023999E-02
  0.3894737E+00  0.1230440E+06 -0.2859217E+01  0.5337678E+07 -0.1452728E+01  0.1328389E+08 -0.2550781E+01  0.1133090E+08 -0.1562822E+01  0.1260207E+09  0.1703205E+01  0.5815687E+08  0.1349790E-01
  0.4842105E+00  0.6008034E+06  0.2893138E+01  0.7997267E+07 -0.1243498E+01  0.1512571E+08 -0.2431535E+01  0.1854672E+08 -0.1508226E+01  0.2798716E+09  0.1861869E+01  0.1435442E+09  0.8504117E-01
  0.5789474E+00  0.1319713E+07  0.3130567E+01  0.8980107E+07 -0.9395360E+00  0.1417998E+08 -0.2369107E+01  0.2445915E+08 -0.1399728E+01  0.4597232E+09  0.2021774E+01  0.2859548E+09  0.3064195E+00
  0.6736842E+00  0.1496150E+07 -0.2882992E+01  0.7124320E+07 -0.6268715E+00  0.1125141E+08 -0.2364088E+01  0.2429323E+08 -0.1298256E+01  0.5761996E+09  0.2169466E+01  0.3920821E+09  0.6710688E+00
  0.7684210E+00  0.1173833E+07  0.3000853E+01  0.3593050E+07 -0.3168846E+00  0.6929970E+07 -0.2374049E+01  0.1681976E+08 -0.1264197E+01  0.5564636E+09  0.2219635E+01  0.3406066E+09  0.9721968E+00
  0.8631579E+00  0.1379240E+07  0.2581211E+01  0.7624251E+06  0.8720678E-01  0.2523076E+07 -0.2455757E+01  0.5923678E+07 -0.1339880E+01  0.4534189E+09  0.2195597E+01  0.1991893E+09  0.1107155E+01
  0.9578947E+00  0.1331429E+07  0.2382646E+01  0.4030717E+06  0.2124258E+01  0.7660132E+06  0.5579367E+00  0.4802652E+07  0.1673031E+01  0.2781179E+09  0.2157325E+01  0.6646562E+08  0.1050355E+01
  0.1052631E+01  0.8164478E+06  0.1877245E+01  0.2988733E+06  0.1115589E+01  0.2292008E+07  0.5530450E+00  0.1144656E+08  0.1566077E+01  0.8899819E+08  0.2161878E+01  0.9566470E+07 -0.6980380E+00
  0.1147368E+01  0.3997560E+06  0.5242212E+00  0.9032809E+06  0.2277454E+00  0.1436454E+07  0.1047326E+00  0.1131346E+08  0.1397068E+01  0.5849019E+08 -0.9108203E+00  0.2746265E+08  0.1450482E+01
  0.1242105E+01  0.6343909E+06 -0.5574722E+00  0.5202894E+06  0.5764660E+00  0.1232281E+07  0.6225315E+00  0.5354413E+07  0.1385195E+01  0.1199934E+09 -0.1113981E+01  0.8566600E+08  0.1715058E+01
  0.1336842E+01  0.5086749E+06 -0.7203326E-01  0.6882631E+06  0.2783881E+01  0.1529466E+06 -0.2816732E+01  0.2231062E+07 -0.2414255E+01  0.4766198E+08 -0.1207306E+01  0.7630268E+08  0.1949796E+01
  0.1431579E+01  0.2401225E+05  0.1097936E+01  0.1198549E+07 -0.2886071E+01  0.3417601E+06 -0.2803670E+01  0.6296073E+07 -0.2177278E+01  0.3240408E+07 -0.1614599E+01  0.5060898E+08 -0.2677332E+01
  0.1526316E+01  0.1564082E+06 -0.2009560E+01  0.4870952E+06  0.8529550E+00  0.1117777E+06 -0.2982985E+01  0.2947964E+07 -0.1142286E+01  0.1012529E+08  0.1492045E+01  0.3622748E+08 -0.1077714E+01
  0.1621053E+01  0.2353374E+06 -0.1281297E+01  0.5275001E+06 -0.8106341E+00  0.2905550E+04  0.6332432E+00  0.9957138E+06 -0.2006209E+00  0.3208797E+07  0.1179071E+01  0.4847104E+08 -0.1755887E+01
  0.1715789E+01  0.5042625E+05 -0.2319121E+01  0.4314424E+06 -0.2216409E+00  0.1137227E+06  0.1895101E+01  0.1255621E+07  0.5092920E+00  0.1623467E+07 -0.2721153E+01  0.1588263E+08  0.6286728E+00
  0.1810526E+01  0.2040342E+06  0.2868180E+01  0.3977222E+05  0.1346819E+01  0.1092693E+06 -0.3141275E+01  0.2038747E+06  0.1551333E+01  0.9940474E+07  0.1090788E+01  0.1172232E+08  0.6984830E+00
  0.1905263E+01  0.2289816E+06  0.1874806E+01  0.9538141E+05  0.9005436E+00  0.2215840E+06  0.2103278E+00  0.2627210E+06  0.7766963E+00  0.8125584E+07  0.2640960E+01  0.3446096E+07 -0.3129311E+00
  0.2000000E+01  0.1320831E+06 -0.6622769E+00  0.1022869E+06  0.2088826E+01  0.3779579E+05  0.1858701E+01  0.3481222E+06  0.1874092E+01  0.4382424E+07 -0.1293128E+01  0.7663490E+07  0.2327252E+01
Zone t="Diffraction force - beta =  80.000 deg",I=    20,F=POINT
  0.2000000E+00  0.3234030E+05 -0.1567901E+01  0.1470818E+07 -0.1567883E+01  0.4860714E+07 -0.2883913E+01  0.2814969E+07 -0.1571287E+01  0.1953394E+07  0.1563256E+01  0.1561405E+07  0.2290405E-04
  0.2947368E+00  0.4910534E+05 -0.1613104E+01  0.3363943E+07 -0.1544048E+01  0.9530999E+07 -0.2704464E+01  0.6788413E+07 -0.1572377E+01  0.1324136E+08  0.1594123E+01  0.7450382E+07  0.1024924E-02
  0.3894737E+00  0.4912927E+05 -0.2576786E+01  0.6312792E+07 -0.1452452E+01  0.1399916E+08 -0.2551090E+01  0.1343939E+08 -0.1562830E+01  0.4503833E+08  0.1700915E+01  0.2348034E+08  0.1355047E-01
  0.4842105E+00  0.2130405E+06  0.3116589E+01  0.9967789E+07 -0.1243316E+01  0.1704880E+08 -0.2426036E+01  0.2335001E+08 -0.1508855E+01  0.1041846E+09  0.1857187E+01  0.5975169E+08  0.8563972E-01
  0.5789474E+00  0.5349495E+06 -0.2881078E+01  0.1224709E+08 -0.9496571E+00  0.1785780E+08 -0.2356502E+01  0.3442352E+08 -0.1407917E+01  0.1845385E+09  0.2018483E+01  0.1254644E+09  0.3091596E+00
  0.6736842E+00  0.7834212E+06 -0.2415051E+01  0.1149545E+08 -0.7023260E+00  0.1732716E+08 -0.2368428E+01  0.4250234E+08 -0.1338058E+01  0.2600480E+09  0.2179223E+01  0.1856245E+09  0.6728414E+00
  0.7684210E+00  0.7090371E+06 -0.2336315E+01  0.8880640E+07 -0.5482687E+00  0.1624543E+08 -0.2402969E+01  0.4665774E+08 -0.1334199E+01  0.2957585E+09  0.2231518E+01  0.1802441E+09  0.9297593E+00
  0.8631579E+00  0.1046846E+07 -0.2293919E+01  0.5137983E+07 -0.4502782E+00  0.1405016E+08 -0.2432546E+01  0.4637596E+08 -0.1393349E+01  0.3267382E+09  0.2180994E+01  0.1376353E+09  0.9823172E+00
  0.9578947E+00  0.7599231E+06 -0.1817107E+01  0.1251598E+07 -0.7241790E+00  0.1105533E+08 -0.2489663E+01  0.4308872E+08 -0.1524813E+01  0.3302644E+09  0.2174176E+01  0.4735618E+08  0.8862134E+00
  0.1052631E+01  0.6510088E+06 -0.2048288E+01  0.2187721E+07 -0.3049742E+01  0.7718202E+07 -0.2572916E+01  0.3815887E+08 -0.1700814E+01  0.2885111E+09  0.2096313E+01  0.8562170E+08 -0.1613074E+01
  0.1147368E+01  0.4220286E+06 -0.2001015E+01  0.4107278E+07 -0.3132399E+01  0.6422650E+07  0.2191934E+01  0.3210931E+08 -0.1900008E+01  0.1871472E+09  0.1814115E+01  0.2264751E+09 -0.1677141E+01
  0.1242105E+01  0.8635952E+05 -0.2641140E+01  0.4369818E+07 -0.3102530E+01  0.3379591E+07 -0.2682475E+01  0.2497426E+08 -0.2070536E+01  0.2069940E+09  0.2001032E+01  0.3198358E+09 -0.1660634E+01
  0.1336842E+01  0.1201126E+06 -0.3140898E+01  0.3364391E+07 -0.2968765E+01  0.1405660E+07 -0.2844430E+01  0.1757427E+08 -0.2183871E+01  0.1126925E+09  0.1858447E+01  0.3586280E+09 -0.1582818E+01
  0.1431579E+01  0.8483054E+05 -0.2755500E+01  0.1301870E+07 -0.1877671E+01  0.4128244E+06 -0.3098140E+01  0.1158953E+08 -0.1966605E+01  0.4770433E+08  0.1617597E+01  0.2536630E+09 -0.1332556E+01
  0.1526316E+01  0.7309284E+05 -0.1563265E+01  0.5181828E+06 -0.2744735E+01  0.4900832E+05  0.2982385E+01  0.1225248E+07 -0.2092690E+01  0.9484074E+07  0.8488428E+00  0.2469893E+09 -0.1886434E+01
  0.1621053E+01  0.1236926E+06 -0.1105453E+01  0.6430285E+06 -0.4230257E+00  0.6729161E+05 -0.2122122E+01  0.1777080E+07  0.9270626E-02  0.1295593E+08 -0.1757651E+01  0.1108311E+09 -0.1722807E+01
  0.1715789E+01  0.1588195E+06 -0.1196512E+01  0.3595313E+06 -0.2440284E+00  0.1710932E+06  0.2902664E+01  0.1119220E+07  0.3717054E+00  0.4090782E+08 -0.2376563E+01  0.1946309E+08 -0.1655557E+01
  0.1810526E+01  0.1729518E+06 -0.9833726E+00  0.3246312E+06  0.3029826E+01  0.7038939E+06 -0.2600374E+01  0.1001812E+07  0.3139514E+01  0.2532464E+08 -0.4402474E+00  0.4773786E+07  0.2243750E+01
  0.1905263E+01  0.1292876E+05 -0.9633816E+00  0.6331272E+06  0.3105170E+01  0.2360366E+06 -0.2640593E+01  0.2162384E+07 -0.2869280E+01  0.1175612E+07  0.1491146E+01  0.2032957E+08 -0.2055702E+01
  0.2000000E+01  0.2054312E+05  0.2927227E+01  0.2947781E+06  0.7871289E+00  0.6030791E+05 -0.2991897E+01  0.5210187E+06 -0.1341589E+01  0.2231276E+07  0.1785638E+01  0.2547289E+08 -0.1952457E+01
Zone t="Diffraction force - beta = 100.000 deg",I=    20,F=POINT
  0.2000000E+00  0.3234029E+05  0.1573692E+01  0.1470818E+07 -0.1567883E+01  0.4860712E+07 -0.2883913E+01  0.2814970E+07 -0.1571284E+01  0.1953394E+07 -0.1578333E+01  0.1561413E+07 -0.3141563E+01
  0.2947368E+00  0.4910544E+05  0.1528488E+01  0.3363942E+07 -0.1544048E+01  0.9530999E+07 -0.2704464E+01  0.6788410E+07 -0.1572377E+01  0.1324136E+08 -0.1547466E+01  0.7450386E+07 -0.3140565E+01
  0.3894737E+00  0.4912978E+05  0.5648044E+00  0.6312792E+07 -0.1452452E+01  0.1399915E+08 -0.2551090E+01  0.1343936E+08 -0.1562829E+01  0.4503832E+08 -0.1440677E+01  0.2348038E+08 -0.3128043E+01
  0.4842105E+00  0.2130407E+06 -0.2500401E-01  0.9967789E+07 -0.1243316E+01  0.1704880E+08 -0.2426036E+01  0.2335002E+08 -0.1508855E+01  0.1041846E+09 -0.1284406E+01  0.5975172E+08 -0.3055953E+01
  0.5789474E+00  0.5349496E+06  0.2605144E+00  0.1224709E+08 -0.9496570E+00  0.1785779E+08 -0.2356502E+01  0.3442350E+08 -0.1407917E+01  0.1845384E+09 -0.1123109E+01  0.1254645E+09 -0.2832433E+01
  0.6736842E+00  0.7834218E+06  0.7265410E+00  0.1149544E+08 -0.7023264E+00  0.1732716E+08 -0.2368428E+01  0.4250230E+08 -0.1338058E+01  0.2600481E+09 -0.9623693E+00  0.1856247E+09 -0.2468751E+01
  0.7684210E+00  0.7090373E+06  0.8052772E+00  0.8880638E+07 -0.5482690E+00  0.1624543E+08 -0.2402969E+01  0.4665777E+08 -0.1334198E+01  0.2957587E+09 -0.9100749E+00  0.1802442E+09 -0.2211833E+01
  0.8631579E+00  0.1046847E+07  0.8476733E+00  0.5137983E+07 -0.4502787E+00  0.1405016E+08 -0.2432547E+01  0.4637594E+08 -0.1393349E+01  0.3267384E+09 -0.9605987E+00  0.1376354E+09 -0.2159275E+01
  0.9578947E+00  0.7599231E+06  0.1324485E+01  0.1251600E+07 -0.7241783E+00  0.1105532E+08 -0.2489663E+01  0.4308870E+08 -0.1524812E+01  0.3302647E+09 -0.9674165E+00  0.4735623E+08 -0.2255380E+01
  0.1052631E+01  0.6510079E+06  0.1093305E+01  0.2187719E+07 -0.3049743E+01  0.7718207E+07 -0.2572916E+01  0.3815884E+08 -0.1700815E+01  0.2885112E+09 -0.1045280E+01  0.8562169E+08  0.1528518E+01
  0.1147368E+01  0.4220208E+06  0.1140558E+01  0.4107264E+07 -0.3132400E+01  0.6422642E+07  0.2191934E+01  0.3210925E+08 -0.1900006E+01  0.1871478E+09 -0.1327475E+01  0.2264751E+09  0.1464452E+01
  0.1242105E+01  0.8635730E+05  0.5004495E+00  0.4369812E+07 -0.3102530E+01  0.3379590E+07 -0.2682475E+01  0.2497427E+08 -0.2070535E+01  0.2069941E+09 -0.1140561E+01  0.3198359E+09  0.1480959E+01
  0.1336842E+01  0.1201127E+06  0.6960972E-03  0.3364383E+07 -0.2968764E+01  0.1405657E+07 -0.2844430E+01  0.1757424E+08 -0.2183871E+01  0.1126925E+09 -0.1283146E+01  0.3586278E+09  0.1558775E+01
  0.1431579E+01  0.8483100E+05  0.3860923E+00  0.1301868E+07 -0.1877667E+01  0.4128237E+06 -0.3098138E+01  0.1158954E+08 -0.1966603E+01  0.4770435E+08 -0.1523996E+01  0.2536629E+09  0.1809037E+01
  0.1526316E+01  0.7309288E+05  0.1578323E+01  0.5181802E+06 -0.2744727E+01  0.4900832E+05  0.2982395E+01  0.1225247E+07 -0.2092681E+01  0.9484064E+07 -0.2292745E+01  0.2469890E+09  0.1255159E+01
  0.1621053E+01  0.1236928E+06  0.2036140E+01  0.6430318E+06 -0.4230253E+00  0.6729228E+05 -0.2122131E+01  0.1777086E+07  0.9273316E-02  0.1295593E+08  0.1383941E+01  0.1108310E+09  0.1418785E+01
  0.1715789E+01  0.1588199E+06  0.1945084E+01  0.3595321E+06 -0.2440287E+00  0.1710946E+06  0.2902666E+01  0.1119221E+07  0.3717065E+00  0.4090776E+08  0.7650297E+00  0.1946302E+08  0.1486038E+01
  0.1810526E+01  0.1729522E+06  0.2158218E+01  0.3246315E+06  0.3029828E+01  0.7038951E+06 -0.2600372E+01  0.1001814E+07  0.3139516E+01  0.2532451E+08  0.2701346E+01  0.4773747E+07 -0.8978329E+00
  0.1905263E+01  0.1292843E+05  0.2178213E+01  0.6331260E+06  0.3105170E+01  0.2360367E+06 -0.2640593E+01  0.2162382E+07 -0.2869278E+01  0.1175645E+07 -0.1650434E+01  0.2032968E+08  0.1085894E+01
  0.2000000E+01  0.2054327E+05 -0.2143630E+00  0.2947782E+06  0.7871240E+00  0.6030762E+05 -0.2991895E+01  0.5210222E+06 -0.1341581E+01  0.2231292E+07 -0.1355956E+01  0.2547285E+08  0.1189135E+01
Zone t="Diffraction force - beta = 120.000 deg",I=    20,F=POINT
  0.2000000E+00  0.9218766E+05  0.1573698E+01  0.1289849E+07 -0.1567884E+01  0.4839050E+07 -0.2883584E+01  0.2468351E+07 -0.1571287E+01  0.5608166E+07 -0.1578298E+01  0.3947541E+07 -0.3141569E+01
  0.2947368E+00  0.1324592E+06  0.1525067E+01  0.2920068E+07 -0.1544080E+01  0.9359550E+07 -0.2703546E+01  0.5888668E+07 -0.1572374E+01  0.3775056E+08 -0.1546941E+01  0.1872902E+08 -0.3140568E+01
  0.3894737E+00  0.1230444E+06  0.2823734E+00  0.5337678E+07 -0.1452728E+01  0.1328389E+08 -0.2550781E+01  0.1133094E+08 -0.1562822E+01  0.1260209E+09 -0.1438387E+01  0.5815688E+08 -0.3128094E+01
  0.4842105E+00  0.6008034E+06 -0.2484540E+00  0.7997268E+07 -0.1243498E+01  0.1512571E+08 -0.2431535E+01  0.1854671E+08 -0.1508226E+01  0.2798716E+09 -0.1279724E+01  0.1435442E+09 -0.3056551E+01
  0.5789474E+00  0.1319714E+07 -0.1102662E-01  0.8980104E+07 -0.9395362E+00  0.1417998E+08 -0.2369107E+01  0.2445912E+08 -0.1399728E+01  0.4597234E+09 -0.1119818E+01  0.2859548E+09 -0.2835173E+01
  0.6736842E+00  0.1496150E+07  0.2586004E+00  0.7124320E+07 -0.6268713E+00  0.1125141E+08 -0.2364088E+01  0.2429320E+08 -0.1298256E+01  0.5761993E+09 -0.9721270E+00  0.3920823E+09 -0.2470524E+01
  0.7684210E+00  0.1173834E+07 -0.1407401E+00  0.3593046E+07 -0.3168851E+00  0.6929965E+07 -0.2374049E+01  0.1681976E+08 -0.1264198E+01  0.5564638E+09 -0.9219581E+00  0.3406065E+09 -0.2169396E+01
  0.8631579E+00  0.1379240E+07 -0.5603811E+00  0.7624239E+06  0.8720626E-01  0.2523068E+07 -0.2455756E+01  0.5923659E+07 -0.1339881E+01  0.4534188E+09 -0.9459957E+00  0.1991893E+09 -0.2034438E+01
  0.9578947E+00  0.1331430E+07 -0.7589477E+00  0.4030717E+06  0.2124259E+01  0.7660189E+06  0.5579364E+00  0.4802660E+07  0.1673032E+01  0.2781177E+09 -0.9842678E+00  0.6646553E+08 -0.2091238E+01
  0.1052631E+01  0.8164479E+06 -0.1264349E+01  0.2988734E+06  0.1115589E+01  0.2292009E+07  0.5530462E+00  0.1144655E+08  0.1566077E+01  0.8899818E+08 -0.9797137E+00  0.9566463E+07  0.2443551E+01
  0.1147368E+01  0.3997549E+06 -0.2617375E+01  0.9032799E+06  0.2277448E+00  0.1436452E+07  0.1047288E+00  0.1131345E+08  0.1397068E+01  0.5849010E+08  0.2230771E+01  0.2746270E+08 -0.1691110E+01
  0.1242105E+01  0.6343911E+06  0.2584117E+01  0.5202888E+06  0.5764730E+00  0.1232286E+07  0.6225247E+00  0.5354396E+07  0.1385195E+01  0.1199934E+09  0.2027611E+01  0.8566593E+08 -0.1426534E+01
  0.1336842E+01  0.5086744E+06  0.3069560E+01  0.6882638E+06  0.2783884E+01  0.1529473E+06 -0.2816735E+01  0.2231068E+07 -0.2414254E+01  0.4766187E+08  0.1934286E+01  0.7630257E+08 -0.1191796E+01
  0.1431579E+01  0.2401198E+05 -0.2043648E+01  0.1198549E+07 -0.2886071E+01  0.3417607E+06 -0.2803671E+01  0.6296081E+07 -0.2177281E+01  0.3240430E+07  0.1526984E+01  0.5060898E+08  0.4642628E+00
  0.1526316E+01  0.1564086E+06  0.1132036E+01  0.4870979E+06  0.8529530E+00  0.1117779E+06 -0.2982983E+01  0.2947970E+07 -0.1142283E+01  0.1012526E+08 -0.1649547E+01  0.3622742E+08  0.2063878E+01
  0.1621053E+01  0.2353369E+06  0.1860296E+01  0.5275026E+06 -0.8106327E+00  0.2905361E+04  0.6334367E+00  0.9957226E+06 -0.2006204E+00  0.3208806E+07 -0.1962521E+01  0.4847100E+08  0.1385707E+01
  0.1715789E+01  0.5042614E+05  0.8224592E+00  0.4314424E+06 -0.2216384E+00  0.1137233E+06  0.1895098E+01  0.1255621E+07  0.5092924E+00  0.1623475E+07  0.4204184E+00  0.1588270E+08 -0.2512916E+01
  0.1810526E+01  0.2040345E+06 -0.2734136E+00  0.3977232E+05  0.1346840E+01  0.1092680E+06 -0.3141267E+01  0.2038765E+06  0.1551348E+01  0.9940502E+07 -0.2050804E+01  0.1172232E+08 -0.2443110E+01
  0.1905263E+01  0.2289817E+06 -0.1266788E+01  0.9538105E+05  0.9005494E+00  0.2215840E+06  0.2103288E+00  0.2627206E+06  0.7767028E+00  0.8125550E+07 -0.5006331E+00  0.3446059E+07  0.2828662E+01
  0.2000000E+01  0.1320832E+06  0.2479316E+01  0.1022871E+06  0.2088830E+01  0.3779588E+05  0.1858710E+01  0.3481225E+06  0.1874096E+01  0.4382438E+07  0.1848466E+01  0.7663498E+07 -0.8143375E+00
Zone t="Diffraction force - beta = 140.000 deg",I=    20,F=POINT
  0.2000000E+00  0.1390594E+06  0.1573708E+01  0.9533128E+06 -0.1567885E+01  0.4805967E+07 -0.2883076E+01  0.1824020E+07 -0.1571290E+01  0.8553820E+07 -0.1578242E+01  0.4478414E+07 -0.3141568E+01
  0.2947368E+00  0.1823722E+06  0.1518967E+01  0.2124360E+07 -0.1544129E+01  0.9100459E+07 -0.2702113E+01  0.4279414E+07 -0.1572373E+01  0.5696130E+08 -0.1546128E+01  0.2106209E+08 -0.3140570E+01
  0.3894737E+00  0.1820489E+06 -0.2143509E+00  0.3725011E+07 -0.1453157E+01  0.1223179E+08 -0.2550350E+01  0.7870206E+07 -0.1562811E+01  0.1846951E+09 -0.1434816E+01  0.6390808E+08 -0.3128172E+01
  0.4842105E+00  0.9569065E+06 -0.5368202E+00  0.5114034E+07 -0.1243527E+01  0.1245013E+08 -0.2441242E+01  0.1164969E+08 -0.1507035E+01  0.3844180E+09 -0.1272246E+01  0.1502247E+09 -0.3057463E+01
  0.5789474E+00  0.1806843E+07 -0.4037290E+00  0.4864172E+07 -0.9162480E+00  0.9500056E+07 -0.2389576E+01  0.1240566E+08 -0.1380986E+01  0.5568477E+09 -0.1114452E+01  0.2738948E+09 -0.2839103E+01
  0.6736842E+00  0.1841221E+07 -0.4636008E+00  0.2684652E+07 -0.3783064E+00  0.4548600E+07 -0.2308487E+01  0.6834208E+07 -0.1128717E+01  0.5641116E+09 -0.9896489E+00  0.3258757E+09 -0.2467773E+01
  0.7684210E+00  0.1414806E+07 -0.9373209E+00  0.1385938E+07  0.1537199E+01  0.1076455E+07  0.1030159E+00  0.4271298E+07  0.1514673E+01  0.3787737E+09 -0.9339839E+00  0.2211925E+09 -0.2034213E+01
  0.8631579E+00  0.1170057E+07 -0.2071562E+01  0.2079180E+07  0.2533993E+01  0.3669340E+07  0.5671582E+00  0.1078044E+08  0.1873657E+01  0.9594051E+08 -0.7265621E+00  0.7281139E+08 -0.8737271E+00
  0.9578947E+00  0.1519631E+07  0.2953406E+01  0.1044256E+07  0.3131660E+01  0.2860668E+07  0.5568205E+00  0.7476262E+07  0.1920586E+01  0.1263322E+09  0.2051221E+01  0.9178292E+08  0.7730657E+00