VARIABLES="w (rad/s)"  
"abs(F   1   1)" "angle(F   1   1)"
"abs(F   1   2)" "angle(F   1   2)"
"abs(F   1   3)" "angle(F   1   3)"
"abs(F   1   4)" "angle(F   1   4)"
"abs(F   1   5)" "angle(F   1   5)"
"abs(F   1   6)" "angle(F   1   6)"
Zone t="Excitation force - beta =   0.000 deg",I=    20,F=POINT
  0.2000000E+00  0.1958854E+07 -0.1570530E+01  0.3438219E+00  0.3121141E+01  0.3817992E+08 -0.3199072E-01  0.9412360E+02  0.6092421E-02  0.3088838E+09 -0.1570531E+01  0.1433200E+02  0.2244141E+01
  0.2947368E+00  0.3764185E+07 -0.1574143E+01  0.2261427E+01 -0.8291323E-02  0.3072264E+08 -0.1224809E+00  0.2707044E+02 -0.1792209E+00  0.5665699E+09 -0.1574102E+01  0.2312168E+02  0.2152012E+01
  0.3894737E+00  0.4943853E+07 -0.1616730E+01  0.3439397E+01  0.1294286E+00  0.2237037E+08 -0.2781149E+00  0.1678744E+02  0.3371308E+00  0.7287997E+09 -0.1614638E+01  0.1460765E+02  0.1700190E+01
  0.4842105E+00  0.4373594E+07 -0.1793729E+01  0.1085252E+00 -0.2652885E+00  0.1343160E+08 -0.4685813E+00  0.6329412E+02  0.6765057E-01  0.7099166E+09 -0.1758506E+01  0.3426347E+02  0.1736861E+01
  0.5789474E+00  0.2084100E+07 -0.2495833E+01  0.2415346E+00 -0.1533335E+01  0.4554733E+07 -0.8391335E+00  0.8930010E+01 -0.2702328E+01  0.5546776E+09 -0.2012686E+01  0.5990157E+02 -0.1095066E+01
  0.6736842E+00  0.3378169E+07  0.1963097E+01  0.5789409E+00 -0.6411147E+00  0.1964505E+07 -0.3043682E+01  0.7059792E+01 -0.3086327E+01  0.2906500E+09 -0.2318813E+01  0.3371354E+02  0.1242394E+01
  0.7684210E+00  0.4476848E+07  0.1475619E+01  0.7198477E+00  0.3991673E+00  0.2647822E+07  0.2420509E+01  0.4438713E+01 -0.9296519E+00  0.6840381E+08  0.2420687E+01  0.1702526E+02  0.1273610E+01
  0.8631579E+00  0.2755577E+07  0.1363686E+00  0.6084127E-01 -0.7034445E-01  0.9951254E+06  0.1325876E+01  0.3022734E+00  0.1218585E+01  0.1142238E+09  0.9601707E+00  0.3893279E+01  0.1057100E+01
  0.9578947E+00  0.4616974E+07 -0.1078494E+01  0.1125717E+00  0.2478147E+01  0.1124754E+07 -0.6995772E+00  0.1415982E+01 -0.3125098E+01  0.5022780E+08  0.8584134E-01  0.3157394E+01 -0.9313378E+00
  0.1052631E+01  0.3157182E+07 -0.2407749E+01  0.2691372E-01 -0.2318375E+01  0.7923082E+06 -0.1819714E+01  0.7146768E+00  0.2661991E+01  0.4478110E+08 -0.2131119E+01  0.7408706E+01 -0.4930392E+00
  0.1147368E+01  0.3763978E+07  0.2367231E+01  0.1239626E+00 -0.3123016E+01  0.3475921E+06  0.2643018E+01  0.2447918E+01 -0.3086789E+01  0.1810361E+08 -0.2901862E+01  0.2052111E+01  0.1092381E+01
  0.1242105E+01  0.2807971E+07  0.6473097E+00  0.2837239E-01  0.1466261E+01  0.4145988E+06  0.9310867E+00  0.3342607E+00  0.1425872E+01  0.2513991E+08  0.5068156E+00  0.2248404E+01  0.1730653E+01
  0.1336842E+01  0.2781482E+07 -0.1158610E+01  0.8686847E-01  0.3021549E+01  0.2868559E+06 -0.1106620E+01  0.6921815E+00  0.2891946E+01  0.1264802E+08 -0.9104494E+00  0.4506534E+01  0.1612415E+01
  0.1431579E+01  0.2186663E+07  0.2956524E+01  0.3486085E-01 -0.4203801E+00  0.2074477E+06  0.3139910E+01  0.4372616E+00  0.5510636E+00  0.1644350E+08  0.2670631E+01  0.3602526E+01 -0.1720002E+01
  0.1526316E+01  0.1766735E+07  0.1069710E+01  0.3772524E-01 -0.3003549E+01  0.1945522E+06  0.6912541E+00  0.3888985E+00 -0.5341298E+00  0.7716905E+07 -0.1186620E+01  0.2461383E+01  0.1815329E+01
  0.1621053E+01  0.1966341E+07 -0.1342173E+01  0.1451719E-01  0.8575616E+00  0.1398603E+06 -0.2182098E+01  0.1084778E+00 -0.2833237E+00  0.3407754E+07 -0.2567742E+01  0.2535290E+01  0.1213301E+01
  0.1715789E+01  0.1652219E+07  0.2361146E+01  0.1627414E-01 -0.3091039E+01  0.5266484E+05  0.1221703E+01  0.1241374E+00  0.3012759E+01  0.7751182E+07  0.6338133E+00  0.4170511E+01  0.1902604E+01
  0.1810526E+01  0.1232153E+07 -0.1683028E+00  0.2652138E-02 -0.3141593E+01  0.6959221E+05  0.5089892E-02  0.1594480E+00  0.2058319E+01  0.1148562E+08 -0.2047336E+01  0.5953744E+01  0.1494698E+01
  0.1905263E+01  0.9976279E+06 -0.2714783E+01  0.8641037E-02 -0.1733628E+00  0.1931637E+06 -0.2989051E+01  0.1304530E+00  0.6123132E+00  0.9111447E+07  0.1283602E+01  0.2038476E+00  0.1164487E+00
  0.2000000E+01  0.8975146E+06  0.8398150E+00  0.1746928E-01 -0.2677945E+01  0.2538726E+06  0.8480240E-02  0.1030797E+00  0.3065729E+01  0.7304550E+07 -0.1756314E+01  0.3365729E+00 -0.1190290E+01
Zone t="Excitation force - beta =  20.000 deg",I=    20,F=POINT
  0.2000000E+00  0.1844600E+07 -0.1570530E+01  0.1115509E+07 -0.1569477E+01  0.3824415E+08 -0.3199198E-01  0.3571669E+06  0.1571976E+01  0.2905416E+09 -0.1570530E+01  0.7151849E+07  0.7652960E-05
  0.2947368E+00  0.3574226E+07 -0.1574089E+01  0.2337798E+07 -0.1558152E+01  0.3097190E+08 -0.1225739E+00  0.2579786E+06  0.1584384E+01  0.5349093E+09 -0.1574068E+01  0.3251605E+08  0.4276989E-03
  0.3894737E+00  0.4815189E+07 -0.1615402E+01  0.3669932E+07 -0.1511005E+01  0.2297899E+08 -0.2790338E+00  0.6212302E+06 -0.1520034E+01  0.6949371E+09 -0.1614288E+01  0.9196389E+08  0.5874161E-02
  0.4842105E+00  0.4582075E+07 -0.1776609E+01  0.4242020E+07 -0.1390574E+01  0.1456915E+08 -0.4693047E+00  0.2172096E+07 -0.1411894E+01  0.6914862E+09 -0.1757601E+01  0.1902296E+09  0.3978637E-01
  0.5789474E+00  0.2675199E+07 -0.2255090E+01  0.2928138E+07 -0.1154392E+01  0.5968480E+07 -0.7710722E+00  0.2727636E+07 -0.1217848E+01  0.5666975E+09 -0.2014932E+01  0.2873275E+09  0.1565122E+00
  0.6736842E+00  0.2497313E+07  0.2181877E+01  0.7973181E+06  0.5150836E+00  0.1464206E+07 -0.2500985E+01  0.8695713E+06  0.1238928E+00  0.3454437E+09 -0.2308275E+01  0.2636155E+09  0.3783162E+00
  0.7684210E+00  0.4509602E+07  0.1564358E+01  0.2740785E+07  0.1791975E+01  0.2557336E+07  0.2461823E+01  0.4469222E+07  0.1747051E+01  0.9507234E+08 -0.3127422E+01  0.8981405E+08  0.9952396E+00
  0.8631579E+00  0.3173539E+07  0.7672374E+00  0.2127942E+07  0.2156595E+01  0.1488392E+07  0.1689178E+01  0.4879521E+07  0.2055464E+01  0.9228922E+08  0.1074563E+01  0.1530632E+09 -0.3057856E+01
  0.9578947E+00  0.3776221E+07 -0.8197660E+00  0.1087037E+07 -0.1877539E+01  0.8524576E+06 -0.2102309E+00  0.2274325E+07 -0.1999501E+01  0.7514183E+08  0.2941490E+00  0.1628794E+09 -0.2675691E+01
  0.1052631E+01  0.3647822E+07 -0.1784324E+01  0.1997834E+07 -0.1199014E+01  0.9568897E+06 -0.1507263E+01  0.6215894E+07 -0.1221579E+01  0.2860802E+08 -0.1417903E+01  0.5804807E+08 -0.4733203E+00
  0.1147368E+01  0.3001247E+07  0.2872888E+01  0.5684514E+06  0.9195756E+00  0.2767853E+06  0.2581192E+01  0.1464251E+07  0.6578909E+00  0.2885632E+08 -0.2754548E+01  0.1433387E+09  0.3596351E+00
  0.1242105E+01  0.2822702E+07  0.1441253E+01  0.1497194E+07  0.1920100E+01  0.4616413E+06  0.1477236E+01  0.5563000E+07  0.1989975E+01  0.1980010E+08  0.1685448E+01  0.3970698E+08  0.2740106E+01
  0.1336842E+01  0.2149033E+07 -0.4009957E+00  0.6573319E+06 -0.1641803E+01  0.2584207E+06 -0.3572259E+00  0.1921245E+07 -0.1559009E+01  0.1808519E+08 -0.4986523E+00  0.9929022E+08 -0.2705808E+01
  0.1431579E+01  0.2138626E+07 -0.2105680E+01  0.8358472E+06 -0.1192036E+01  0.1654357E+06 -0.2720882E+01  0.3234923E+07 -0.1143534E+01  0.6311113E+07 -0.1449596E+01  0.6261111E+08  0.3128147E+00
  0.1526316E+01  0.1776879E+07  0.1516450E+01  0.7026329E+06  0.1985367E+01  0.2967692E+05 -0.2886552E+01  0.2770300E+07  0.2072822E+01  0.3036239E+08  0.1291153E+01  0.3275637E+08  0.4828167E+00
  0.1621053E+01  0.5116985E+06  0.1981470E+00  0.6434708E+05 -0.1583975E+01  0.2143363E+06  0.5763925E+00  0.2248571E+05  0.1654110E+00  0.2109440E+08 -0.2513427E+01  0.4838544E+08 -0.2704790E+01
  0.1715789E+01  0.1179189E+07 -0.1825731E+01  0.3331458E+06 -0.1578420E+01  0.3489015E+06 -0.2623136E+01  0.1406620E+07 -0.1483191E+01  0.1063857E+08  0.3300983E+00  0.1863617E+08  0.3186832E+00
  0.1810526E+01  0.1232741E+07  0.1650703E+01  0.3870638E+06  0.1466512E+01  0.4082119E+06  0.3070736E+00  0.1528873E+07  0.1525222E+01  0.6490004E+07  0.2756233E+01  0.1104440E+08 -0.9213346E-03
  0.1905263E+01  0.9300812E+06 -0.1223029E+01  0.2573676E+06 -0.1766145E+01  0.3355882E+06  0.3002325E+01  0.9947204E+06 -0.1742235E+01  0.5295352E+07 -0.8991207E+00  0.2517228E+08  0.3116452E+01
  0.2000000E+01  0.6182952E+06  0.2175355E+01  0.9791564E+05  0.1148782E+01  0.2001461E+06 -0.5506155E+00  0.3486270E+06  0.1078505E+01  0.5089228E+07  0.1989039E+01  0.2648784E+08  0.7125665E-01
Zone t="Excitation force - beta =  40.000 deg",I=    20,F=POINT
  0.2000000E+00  0.1511753E+07 -0.1570528E+01  0.2105141E+07 -0.1569479E+01  0.3840709E+08 -0.3199516E-01  0.6759546E+06  0.1572091E+01  0.2374419E+09 -0.1570528E+01  0.1098299E+08  0.7946661E-05
  0.2947368E+00  0.2990962E+07 -0.1573955E+01  0.4480877E+07 -0.1558155E+01  0.3160787E+08 -0.1228082E+00  0.5127502E+06  0.1584070E+01  0.4412677E+09 -0.1573980E+01  0.5037056E+08  0.4273491E-03
  0.3894737E+00  0.4286312E+07 -0.1612308E+01  0.7338495E+07 -0.1511185E+01  0.2455738E+08 -0.2813287E+00  0.1157002E+07 -0.1516461E+01  0.5876941E+09 -0.1613412E+01  0.1457987E+09  0.5882754E-02
  0.4842105E+00  0.4795260E+07 -0.1743131E+01  0.9363229E+07 -0.1394306E+01  0.1764324E+08 -0.4721339E+00  0.4541376E+07 -0.1406596E+01  0.6159870E+09 -0.1755403E+01  0.3171687E+09  0.3981072E-01
  0.5789474E+00  0.4261585E+07 -0.1971315E+01  0.8294804E+07 -0.1205733E+01  0.1025722E+08 -0.6850190E+00  0.7182873E+07 -0.1238873E+01  0.5636019E+09 -0.2021265E+01  0.5293563E+09  0.1547526E+00
  0.6736842E+00  0.2126800E+07 -0.2456475E+01  0.3759468E+07 -0.8451595E+00  0.3803625E+07 -0.1086418E+01  0.5065982E+07 -0.9555665E+00  0.4629264E+09 -0.2303630E+01  0.5968688E+09  0.3476350E+00
  0.7684210E+00  0.2608666E+07  0.1897627E+01  0.2502558E+07  0.1552191E+01  0.1051122E+07  0.3036089E+01  0.3329078E+07  0.1498762E+01  0.2654089E+09 -0.2584175E+01  0.3884939E+09  0.5343820E+00
  0.8631579E+00  0.4674010E+07  0.1450322E+01  0.4554468E+07  0.1954986E+01  0.2254207E+07  0.2077188E+01  0.9141686E+07  0.1930200E+01  0.7185595E+08  0.3078296E+01  0.5587600E+08  0.1612869E+01
  0.9578947E+00  0.2819086E+07  0.1012746E+01  0.2488755E+07  0.2003767E+01  0.1518250E+07  0.1478839E+01  0.6832940E+07  0.1955158E+01  0.7155420E+08  0.6164184E+00  0.2249078E+09 -0.2852604E+01
  0.1052631E+01  0.2659839E+07 -0.7395881E+00  0.9051112E+06 -0.1433947E+01  0.5129874E+06 -0.1192712E+00  0.1630666E+07 -0.1326382E+01  0.7023632E+08  0.1108180E+00  0.2028400E+09 -0.2936187E+01
  0.1147368E+01  0.2775564E+07 -0.1454752E+01  0.2288798E+07 -0.1548418E+01  0.3967983E+06 -0.1387867E+01  0.7196686E+07 -0.1473468E+01  0.7278279E+07 -0.1547831E+01  0.1378597E+08  0.3028065E+01
  0.1242105E+01  0.1764611E+07 -0.2756586E+01  0.7394452E+06 -0.1637599E+01  0.3315501E+06 -0.2833852E+01  0.3416950E+07 -0.1532689E+01  0.1769099E+08 -0.2995364E+01  0.1439190E+09 -0.4874178E-01
  0.1336842E+01  0.1869472E+07  0.1854917E+01  0.1352650E+07  0.1378959E+01  0.1731220E+06 -0.2278287E+01  0.4264879E+07  0.1536795E+01  0.3823226E+08  0.2299113E+01  0.7480148E+08 -0.5441367E-01
  0.1431579E+01  0.6352126E+06  0.2060842E+00  0.8454927E+06  0.1352518E+01  0.3926405E+06  0.8081416E+00  0.3451680E+07  0.1436194E+01  0.3271529E+08 -0.9696432E+00  0.6993088E+08  0.3010622E+01
  0.1526316E+01  0.7238130E+06 -0.9309652E+00  0.5613139E+06 -0.2017888E+01  0.1688859E+06 -0.2154447E+01  0.1861564E+07 -0.1845908E+01  0.6185268E+07  0.1079033E+00  0.4820778E+08  0.3119079E+01
  0.1621053E+01  0.4251332E+06 -0.2089489E+01  0.2527689E+06 -0.1763256E+01  0.6995229E+05 -0.2927551E+01  0.1478467E+07 -0.1582838E+01  0.7016558E+07  0.1424146E+01  0.2590221E+08 -0.5793210E+00
  0.1715789E+01  0.1822301E+06  0.1663977E+01  0.2469906E+06  0.6341323E+00  0.1571241E+06  0.8919743E+00  0.1265538E+07  0.7886186E+00  0.9792726E+06  0.1838825E+01  0.1505903E+08  0.5541049E+00
  0.1810526E+01  0.1648299E+06  0.2046539E+01  0.3667736E+05  0.4330833E+00  0.1485151E+05 -0.7882115E+00  0.3788384E+06 -0.3048289E+01  0.2461435E+07  0.9841676E+00  0.1182451E+08  0.7974180E+00
  0.1905263E+01  0.1248377E+06  0.5506500E+00  0.2381561E+06  0.2319962E+01  0.9371429E+04  0.2831167E+01  0.4289362E+06  0.2153943E+01  0.1116818E+07 -0.1789628E+01  0.2774910E+08 -0.2971449E+01
  0.2000000E+01  0.2798919E+06 -0.1745177E+01  0.4066144E+06 -0.1157061E+01  0.3462753E+05  0.2847669E+01  0.9981620E+06 -0.1158944E+01  0.9024226E+06 -0.1996274E+01  0.7156820E+07 -0.1488350E+00
Zone t="Excitation force - beta =  60.000 deg",I=    20,F=POINT
  0.2000000E+00  0.9926995E+06 -0.1570527E+01  0.2849567E+07 -0.1569478E+01  0.3859288E+08 -0.3199877E-01  0.9179571E+06  0.1572102E+01  0.1554181E+09 -0.1570525E+01  0.9683868E+07  0.9291225E-05
  0.2947368E+00  0.2010392E+07 -0.1573808E+01  0.6172285E+07 -0.1558159E+01  0.3233955E+08 -0.1230721E+00  0.7348557E+06  0.1583491E+01  0.2919132E+09 -0.1573881E+01  0.4485224E+08  0.4276776E-03
  0.3894737E+00  0.3078492E+07 -0.1609191E+01  0.1058734E+08 -0.1511375E+01  0.2641845E+08 -0.2838899E+00  0.1530807E+07 -0.1511707E+01  0.3997107E+09 -0.1612432E+01  0.1332278E+09  0.5891694E-02
  0.4842105E+00  0.4018139E+07 -0.1716240E+01  0.1493559E+08 -0.1397795E+01  0.2149400E+08 -0.4765738E+00  0.6800749E+07 -0.1399430E+01  0.4431501E+09 -0.1753045E+01  0.3060848E+09  0.3984420E-01
  0.5789474E+00  0.4903462E+07 -0.1843278E+01  0.1633314E+08 -0.1240338E+01  0.1645077E+08 -0.6454779E+00  0.1307990E+08 -0.1246821E+01  0.4526718E+09 -0.2029331E+01  0.5653830E+09  0.1531626E+00
  0.6736842E+00  0.5074054E+07 -0.1859863E+01  0.1325357E+08 -0.1120385E+01  0.1072301E+08 -0.8272482E+00  0.1559018E+08 -0.1137962E+01  0.4791299E+09 -0.2315446E+01  0.7646013E+09  0.3245335E+00
  0.7684210E+00  0.3210115E+07 -0.1941264E+01  0.7410698E+07 -0.1092005E+01  0.5516226E+07 -0.1059945E+01  0.1191651E+08 -0.1130723E+01  0.4305872E+09 -0.2466915E+01  0.7504835E+09  0.3843285E+00
  0.8631579E+00  0.1206076E+07 -0.2890610E+01  0.1877278E+07 -0.1154266E+01  0.1602622E+07 -0.1647465E+01  0.4627872E+07 -0.1273483E+01  0.2951769E+09 -0.2687168E+01  0.6000259E+09  0.3014676E+00
  0.9578947E+00  0.2217065E+07  0.2021641E+01  0.2213948E+07  0.1666640E+01  0.8618747E+06  0.2651679E+01  0.3734070E+07  0.1702439E+01  0.1551211E+09 -0.3017622E+01  0.3693463E+09  0.1567700E+00
  0.1052631E+01  0.2958932E+07  0.1654133E+01  0.4004624E+07  0.1537978E+01  0.1214148E+07  0.1700515E+01  0.9720375E+07  0.1565238E+01  0.5346336E+08  0.2758854E+01  0.1048478E+09 -0.5867606E-01
  0.1147368E+01  0.2003586E+07  0.1397198E+01  0.3363876E+07  0.1306127E+01  0.2081058E+06  0.8061041E+00  0.9993928E+07  0.1373847E+01  0.3596615E+08 -0.7678244E-01  0.1015040E+09  0.2869652E+01
  0.1242105E+01  0.5615161E+06  0.2883029E+00  0.1211638E+07  0.1202512E+01  0.1026676E+07  0.7752088E+00  0.4864849E+07  0.1366265E+01  0.7767823E+08 -0.8211548E+00  0.1918874E+09  0.2683987E+01
  0.1336842E+01  0.6855312E+06 -0.7375898E+00  0.8046225E+06 -0.2500162E+01  0.5532255E+05 -0.1080955E+01  0.1800008E+07 -0.2753999E+01  0.2916178E+08 -0.9507258E+00  0.1378049E+09  0.2601276E+01
  0.1431579E+01  0.3613775E+06 -0.1540529E+01  0.1499443E+07 -0.2454947E+01  0.2368956E+06 -0.2642895E+01  0.4863810E+07 -0.2400638E+01  0.2686783E+07 -0.1623632E+01  0.5921949E+08 -0.2748922E+01
  0.1526316E+01  0.1753888E+06 -0.1959345E+01  0.4614218E+06  0.8032688E+00  0.1072653E+06 -0.2976253E+01  0.1999535E+07 -0.9114437E+00  0.9566036E+07  0.1487431E+01  0.3589484E+08 -0.1095247E+01
  0.1621053E+01  0.3464214E+06 -0.1375627E+01  0.6784678E+06 -0.1005437E+01  0.2089507E+05  0.8238018E-01  0.1866058E+07 -0.1020558E+01  0.5320436E+07  0.1338455E+01  0.5295649E+08 -0.2022590E+01
  0.1715789E+01  0.3572510E+06 -0.1666985E+01  0.7501833E+06 -0.9751454E+00  0.1078014E+06  0.1559564E+01  0.1984768E+07 -0.9856250E+00  0.1582366E+07 -0.2783656E+01  0.3200549E+08  0.2961383E+00
  0.1810526E+01  0.2009057E+06  0.2930719E+01  0.1960123E+05  0.1103276E+01  0.1081656E+06 -0.3141272E+01  0.1305189E+06  0.1540391E+01  0.7990668E+07  0.9588426E+00  0.5426338E+08  0.1393678E+00
  0.1905263E+01  0.5318779E+06  0.1700030E+01  0.5750504E+06  0.1467579E+01  0.2033842E+06  0.2294718E+00  0.1703670E+07  0.1460586E+01  0.7600840E+07  0.2787162E+01  0.1197778E+08 -0.8868687E-01
  0.2000000E+01  0.1045081E+06  0.8164571E-01  0.2364499E+06  0.1786677E+01  0.3905360E+05  0.1952694E+01  0.7309614E+06  0.1713521E+01  0.4011188E+07 -0.1266645E+01  0.2938282E+08  0.2950752E+01
Zone t="Excitation force - beta =  80.000 deg",I=    20,F=POINT
  0.2000000E+00  0.3461186E+06 -0.1570526E+01  0.3250312E+07 -0.1569478E+01  0.3871438E+08 -0.3200112E-01  0.1049264E+07  0.1572103E+01  0.5407578E+08 -0.1570525E+01  0.3831038E+07  0.8805495E-05
  0.2947368E+00  0.7115630E+06 -0.1573715E+01  0.7120238E+07 -0.1558160E+01  0.3282205E+08 -0.1232428E+00  0.8691712E+06  0.1583189E+01  0.1022701E+09 -0.1573817E+01  0.1785812E+08  0.4271526E-03
  0.3894737E+00  0.1135444E+07 -0.1607353E+01  0.1257526E+08 -0.1511491E+01  0.2767195E+08 -0.2855366E+00  0.1711757E+07 -0.1508207E+01  0.1425540E+09 -0.1611801E+01  0.5393419E+08  0.5899383E-02
  0.4842105E+00  0.1618305E+07 -0.1702782E+01  0.1883609E+08 -0.1399746E+01  0.2422310E+08 -0.4799504E+00  0.8219446E+07 -0.1394024E+01  0.1636910E+09 -0.1751577E+01  0.1282252E+09  0.3986922E-01
  0.5789474E+00  0.2303986E+07 -0.1797072E+01  0.2302861E+08 -0.1256130E+01  0.2133801E+08 -0.6330376E+00  0.1752051E+08 -0.1246537E+01  0.1784322E+09 -0.2034982E+01  0.2516132E+09  0.1523034E+00
  0.6736842E+00  0.3105104E+07 -0.1760521E+01  0.2344272E+08 -0.1187139E+01  0.1733569E+08 -0.7726846E+00  0.2555537E+08 -0.1177113E+01  0.2165157E+09 -0.2327457E+01  0.3755049E+09  0.3131676E+00
  0.7684210E+00  0.3342346E+07 -0.1718323E+01  0.2178364E+08 -0.1215443E+01  0.1329525E+08 -0.9660872E+00  0.3088678E+08 -0.1208865E+01  0.2376131E+09 -0.2440068E+01  0.4419310E+09  0.3330072E+00
  0.8631579E+00  0.3686125E+07 -0.1759849E+01  0.1880472E+08 -0.1322250E+01  0.9900398E+07 -0.1178475E+01  0.3261559E+08 -0.1317093E+01  0.2132041E+09 -0.2642828E+01  0.4962337E+09  0.2328011E+00
  0.9578947E+00  0.3355739E+07 -0.1626040E+01  0.1555351E+08 -0.1510484E+01  0.6785549E+07 -0.1418984E+01  0.3166771E+08 -0.1508209E+01  0.1938298E+09 -0.2883328E+01  0.5095717E+09  0.7205620E-01
  0.1052631E+01  0.2739493E+07 -0.1680222E+01  0.1240648E+08 -0.1747305E+01  0.4189266E+07 -0.1696166E+01  0.2891030E+08 -0.1742771E+01  0.1447371E+09 -0.3135386E+01  0.5035570E+09 -0.1707098E+00
  0.1147368E+01  0.1902474E+07 -0.1663448E+01  0.9400064E+07 -0.2022971E+01  0.5257342E+07  0.1685148E+01  0.2455176E+08 -0.2007345E+01  0.4650459E+08  0.2894164E+01  0.4842857E+09 -0.4836413E+00
  0.1242105E+01  0.8927276E+06 -0.1655772E+01  0.6536900E+07 -0.2302280E+01  0.2278260E+07 -0.2424251E+01  0.1881407E+08 -0.2260228E+01  0.1266332E+09  0.2320968E+01  0.4430598E+09 -0.8023170E+00
  0.1336842E+01  0.3345426E+06 -0.1938030E+01  0.4029542E+07 -0.2536576E+01  0.1067270E+07 -0.2745685E+01  0.1295763E+08 -0.2466081E+01  0.7705194E+08  0.1998657E+01  0.3973798E+09 -0.1125345E+01
  0.1431579E+01  0.9342682E+05 -0.2570202E+01  0.1398416E+07 -0.1855867E+01  0.3970033E+06 -0.3096408E+01  0.8081576E+07 -0.2156651E+01  0.4468929E+08  0.1620757E+01  0.2574974E+09 -0.1277460E+01
  0.1526316E+01  0.6161900E+05 -0.1561863E+01  0.4976438E+06 -0.2859034E+01  0.5612508E+05  0.3002713E+01  0.8438857E+06 -0.2380105E+01  0.1934470E+08  0.1240848E+01  0.2916813E+09 -0.2206008E+01
  0.1621053E+01  0.2480811E+06 -0.1345151E+01  0.1122433E+07 -0.1021146E+01  0.6248025E+05 -0.1161564E+01  0.3565488E+07 -0.1049055E+01  0.2641344E+07 -0.2717003E+01  0.1811319E+09 -0.2492046E+01
  0.1715789E+01  0.4392429E+06 -0.1438214E+01  0.1615675E+07 -0.1353148E+01  0.8166412E+05  0.2622806E+01  0.4939259E+07 -0.1358073E+01  0.3665760E+08 -0.2506470E+01  0.9090446E+08 -0.2926605E+01
  0.1810526E+01  0.4761922E+06 -0.1368121E+01  0.1631215E+07 -0.1769879E+01  0.6394640E+06 -0.2538626E+01  0.5041806E+07 -0.1770829E+01  0.2456908E+08 -0.3696150E+00  0.2338124E+08  0.2981248E+01
  0.1905263E+01  0.2223909E+06 -0.1537609E+01  0.1202417E+07 -0.2124917E+01  0.2054919E+06 -0.2557197E+01  0.3931685E+07 -0.2129070E+01  0.1012751E+07  0.1478304E+01  0.2144023E+08 -0.9952375E+00
  0.2000000E+01  0.5133827E+05 -0.1972507E+01  0.2116098E+06 -0.1829413E+00  0.5429109E+05 -0.2975160E+01  0.9223228E+06 -0.1442093E+01  0.1999784E+07  0.1810970E+01  0.2391371E+08 -0.1419367E+01
Zone t="Excitation force - beta = 100.000 deg",I=    20,F=POINT
  0.2000000E+00  0.3461187E+06  0.1571067E+01  0.3250312E+07 -0.1569478E+01  0.3871439E+08 -0.3200110E-01  0.1049259E+07  0.1572125E+01  0.5407579E+08  0.1571069E+01  0.3831054E+07 -0.3141581E+01
  0.2947368E+00  0.7115634E+06  0.1567877E+01  0.7120236E+07 -0.1558160E+01  0.3282202E+08 -0.1232429E+00  0.8691703E+06  0.1583105E+01  0.1022702E+09  0.1567775E+01  0.1785814E+08 -0.3141164E+01
  0.3894737E+00  0.1135444E+07  0.1534239E+01  0.1257526E+08 -0.1511491E+01  0.2767197E+08 -0.2855365E+00  0.1711738E+07 -0.1508117E+01  0.1425541E+09  0.1529791E+01  0.5393418E+08 -0.3135694E+01
  0.4842105E+00  0.1618306E+07  0.1438810E+01  0.1883609E+08 -0.1399746E+01  0.2422309E+08 -0.4799504E+00  0.8219448E+07 -0.1394032E+01  0.1636911E+09  0.1390015E+01  0.1282253E+09 -0.3101724E+01
  0.5789474E+00  0.2303988E+07  0.1344520E+01  0.2302862E+08 -0.1256130E+01  0.2133801E+08 -0.6330372E+00  0.1752048E+08 -0.1246539E+01  0.1784326E+09  0.1106610E+01  0.2516133E+09 -0.2989290E+01
  0.6736842E+00  0.3105106E+07  0.1381071E+01  0.2344271E+08 -0.1187139E+01  0.1733568E+08 -0.7726851E+00  0.2555535E+08 -0.1177112E+01  0.2165158E+09  0.8141339E+00  0.3755051E+09 -0.2828425E+01
  0.7684210E+00  0.3342347E+07  0.1423269E+01  0.2178363E+08 -0.1215443E+01  0.1329524E+08 -0.9660877E+00  0.3088682E+08 -0.1208865E+01  0.2376132E+09  0.7015228E+00  0.4419311E+09 -0.2808585E+01
  0.8631579E+00  0.3686125E+07  0.1381743E+01  0.1880472E+08 -0.1322250E+01  0.9900390E+07 -0.1178476E+01  0.3261557E+08 -0.1317093E+01  0.2132045E+09  0.4987630E+00  0.4962338E+09 -0.2908792E+01
  0.9578947E+00  0.3355740E+07  0.1515552E+01  0.1555351E+08 -0.1510484E+01  0.6785546E+07 -0.1418984E+01  0.3166770E+08 -0.1508210E+01  0.1938302E+09  0.2582646E+00  0.5095717E+09 -0.3069536E+01
  0.1052631E+01  0.2739492E+07  0.1461371E+01  0.1240647E+08 -0.1747305E+01  0.4189271E+07 -0.1696166E+01  0.2891027E+08 -0.1742772E+01  0.1447373E+09  0.6206817E-02  0.5035573E+09  0.2970883E+01
  0.1147368E+01  0.1902464E+07  0.1478142E+01  0.9400049E+07 -0.2022970E+01  0.5257338E+07  0.1685146E+01  0.2455170E+08 -0.2007343E+01  0.4650550E+08 -0.2474326E+00  0.4842859E+09  0.2657951E+01
  0.1242105E+01  0.8927259E+06  0.1485822E+01  0.6536894E+07 -0.2302280E+01  0.2278260E+07 -0.2424251E+01  0.1881408E+08 -0.2260226E+01  0.1266332E+09 -0.8206244E+00  0.4430599E+09  0.2339276E+01
  0.1336842E+01  0.3345427E+06  0.1203562E+01  0.4029536E+07 -0.2536576E+01  0.1067268E+07 -0.2745684E+01  0.1295761E+08 -0.2466081E+01  0.7705198E+08 -0.1142935E+01  0.3973796E+09  0.2016248E+01
  0.1431579E+01  0.9342727E+05  0.5713892E+00  0.1398415E+07 -0.1855863E+01  0.3970026E+06 -0.3096405E+01  0.8081588E+07 -0.2156647E+01  0.4468930E+08 -0.1520836E+01  0.2574973E+09  0.1864134E+01
  0.1526316E+01  0.6161946E+05  0.1579725E+01  0.4976415E+06 -0.2859021E+01  0.5612497E+05  0.3002721E+01  0.8438945E+06 -0.2380077E+01  0.1934470E+08 -0.1900742E+01  0.2916809E+09  0.9355850E+00
  0.1621053E+01  0.2480818E+06  0.1796442E+01  0.1122438E+07 -0.1021146E+01  0.6248030E+05 -0.1161574E+01  0.3565504E+07 -0.1049056E+01  0.2641356E+07  0.4245940E+00  0.1811315E+09  0.6495465E+00
  0.1715789E+01  0.4392437E+06  0.1703380E+01  0.1615677E+07 -0.1353148E+01  0.8166525E+05  0.2622814E+01  0.4939263E+07 -0.1358073E+01  0.3665756E+08  0.6351225E+00  0.9090407E+08  0.2149886E+00
  0.1810526E+01  0.4761930E+06  0.1773471E+01  0.1631215E+07 -0.1769879E+01  0.6394652E+06 -0.2538624E+01  0.5041810E+07 -0.1770828E+01  0.2456896E+08  0.2771978E+01  0.2338094E+08 -0.1603452E+00
  0.1905263E+01  0.2223908E+06  0.1603982E+01  0.1202416E+07 -0.2124917E+01  0.2054919E+06 -0.2557197E+01  0.3931683E+07 -0.2129069E+01  0.1012773E+07 -0.1663276E+01  0.2144043E+08  0.2146359E+01
  0.2000000E+01  0.5133832E+05  0.1169082E+01  0.2116109E+06 -0.1829425E+00  0.5429084E+05 -0.2975158E+01  0.9223236E+06 -0.1442088E+01  0.1999797E+07 -0.1330624E+01  0.2391367E+08  0.1722228E+01
Zone t="Excitation force - beta = 120.000 deg",I=    20,F=POINT
  0.2000000E+00  0.9926999E+06  0.1571066E+01  0.2849566E+07 -0.1569478E+01  0.3859288E+08 -0.3199875E-01  0.9179547E+06  0.1572033E+01  0.1554181E+09  0.1571067E+01  0.9683861E+07 -0.3141583E+01
  0.2947368E+00  0.2010392E+07  0.1567784E+01  0.6172284E+07 -0.1558159E+01  0.3233956E+08 -0.1230720E+00  0.7348429E+06  0.1583348E+01  0.2919134E+09  0.1567711E+01  0.4485226E+08 -0.3141165E+01
  0.3894737E+00  0.3078492E+07  0.1532400E+01  0.1058734E+08 -0.1511375E+01  0.2641844E+08 -0.2838898E+00  0.1530848E+07 -0.1511732E+01  0.3997108E+09  0.1529160E+01  0.1332278E+09 -0.3135700E+01
  0.4842105E+00  0.4018141E+07  0.1425352E+01  0.1493559E+08 -0.1397795E+01  0.2149400E+08 -0.4765740E+00  0.6800754E+07 -0.1399429E+01  0.4431506E+09  0.1388546E+01  0.3060849E+09 -0.3101748E+01
  0.5789474E+00  0.4903462E+07  0.1298314E+01  0.1633314E+08 -0.1240338E+01  0.1645077E+08 -0.6454777E+00  0.1307990E+08 -0.1246822E+01  0.4526720E+09  0.1112260E+01  0.5653832E+09 -0.2988430E+01
  0.6736842E+00  0.5074055E+07  0.1281729E+01  0.1325357E+08 -0.1120385E+01  0.1072301E+08 -0.8272478E+00  0.1559016E+08 -0.1137962E+01  0.4791308E+09  0.8261467E+00  0.7646014E+09 -0.2817059E+01
  0.7684210E+00  0.3210114E+07  0.1200328E+01  0.7410694E+07 -0.1092006E+01  0.5516224E+07 -0.1059945E+01  0.1191653E+08 -0.1130725E+01  0.4305876E+09  0.6746766E+00  0.7504835E+09 -0.2757264E+01
  0.8631579E+00  0.1206077E+07  0.2509817E+00  0.1877274E+07 -0.1154265E+01  0.1602618E+07 -0.1647463E+01  0.4627846E+07 -0.1273482E+01  0.2951772E+09  0.4544233E+00  0.6000257E+09 -0.2840125E+01
  0.9578947E+00  0.2217068E+07 -0.1119952E+01  0.2213952E+07  0.1666640E+01  0.8618748E+06  0.2651674E+01  0.3734084E+07  0.1702439E+01  0.1551213E+09  0.1239716E+00  0.3693459E+09 -0.2984822E+01
  0.1052631E+01  0.2958934E+07 -0.1487460E+01  0.4004624E+07  0.1537978E+01  0.1214152E+07  0.1700515E+01  0.9720369E+07  0.1565239E+01  0.5346349E+08 -0.3827382E+00  0.1048475E+09  0.3082916E+01
  0.1147368E+01  0.2003584E+07 -0.1744394E+01  0.3363874E+07  0.1306127E+01  0.2081014E+06  0.8060929E+00  0.9993925E+07  0.1373847E+01  0.3596603E+08  0.3064813E+01  0.1015043E+09 -0.2719407E+00
  0.1242105E+01  0.5615142E+06 -0.2853294E+01  0.1211637E+07  0.1202514E+01  0.1026681E+07  0.7751996E+00  0.4864830E+07  0.1366265E+01  0.7767818E+08  0.2320438E+01  0.1918873E+09 -0.4576054E+00
  0.1336842E+01  0.6855314E+06  0.2404001E+01  0.8046248E+06 -0.2500161E+01  0.5532190E+05 -0.1080965E+01  0.1800012E+07 -0.2753998E+01  0.2916165E+08  0.2190866E+01  0.1378048E+09 -0.5403160E+00
  0.1431579E+01  0.3613777E+06  0.1601062E+01  0.1499442E+07 -0.2454947E+01  0.2368962E+06 -0.2642897E+01  0.4863822E+07 -0.2400641E+01  0.2686800E+07  0.1517949E+01  0.5921940E+08  0.3926731E+00
  0.1526316E+01  0.1753893E+06  0.1182249E+01  0.4614247E+06  0.8032677E+00  0.1072652E+06 -0.2976250E+01  0.1999546E+07 -0.9114398E+00  0.9566005E+07 -0.1654162E+01  0.3589479E+08  0.2046345E+01
  0.1621053E+01  0.3464215E+06  0.1765965E+01  0.6784710E+06 -0.1005436E+01  0.2089486E+05  0.8239698E-01  0.1866068E+07 -0.1020556E+01  0.5320442E+07 -0.1803138E+01  0.5295643E+08  0.1119004E+01
  0.1715789E+01  0.3572503E+06  0.1474606E+01  0.7501824E+06 -0.9751441E+00  0.1078021E+06  0.1559564E+01  0.1984767E+07 -0.9856249E+00  0.1582382E+07  0.3579236E+00  0.3200561E+08 -0.2845452E+01
  0.1810526E+01  0.2009063E+06 -0.2108793E+00  0.1960285E+05  0.1103361E+01  0.1081644E+06 -0.3141264E+01  0.1305269E+06  0.1540417E+01  0.7990695E+07 -0.2182749E+01  0.5426338E+08 -0.3002225E+01
  0.1905263E+01  0.5318784E+06 -0.1441563E+01  0.5750514E+06  0.1467581E+01  0.2033842E+06  0.2294730E+00  0.1703672E+07  0.1460587E+01  0.7600808E+07 -0.3544309E+00  0.1197766E+08  0.3052906E+01
  0.2000000E+01  0.1045081E+06 -0.3059951E+01  0.2364487E+06  0.1786679E+01  0.3905370E+05  0.1952701E+01  0.7309579E+06  0.1713524E+01  0.4011199E+07  0.1874949E+01  0.2938289E+08 -0.1908396E+00
Zone t="Excitation force - beta = 140.000 deg",I=    20,F=POINT
  0.2000000E+00  0.1511753E+07  0.1571064E+01  0.2105140E+07 -0.1569478E+01  0.3840710E+08 -0.3199515E-01  0.6759570E+06  0.1572127E+01  0.2374419E+09  0.1571064E+01  0.1098299E+08 -0.3141581E+01
  0.2947368E+00  0.2990962E+07  0.1567637E+01  0.4480875E+07 -0.1558155E+01  0.3160787E+08 -0.1228082E+00  0.5127496E+06  0.1583916E+01  0.4412677E+09  0.1567612E+01  0.5037054E+08 -0.3141166E+01
  0.3894737E+00  0.4286312E+07  0.1529284E+01  0.7338493E+07 -0.1511185E+01  0.2455738E+08 -0.2813286E+00  0.1157025E+07 -0.1516466E+01  0.5876941E+09  0.1528180E+01  0.1457986E+09 -0.3135710E+01
  0.4842105E+00  0.4795260E+07  0.1398461E+01  0.9363225E+07 -0.1394306E+01  0.1764323E+08 -0.4721341E+00  0.4541354E+07 -0.1406605E+01  0.6159873E+09  0.1386189E+01  0.3171687E+09 -0.3101782E+01
  0.5789474E+00  0.4261584E+07  0.1170277E+01  0.8294798E+07 -0.1205733E+01  0.1025721E+08 -0.6850188E+00  0.7182874E+07 -0.1238875E+01  0.5636022E+09  0.1120327E+01  0.5293562E+09 -0.2986840E+01
  0.6736842E+00  0.2126798E+07  0.6851161E+00  0.3759461E+07 -0.8451588E+00  0.3803624E+07 -0.1086418E+01  0.5065966E+07 -0.9555663E+00  0.4629268E+09  0.8379626E+00  0.5968683E+09 -0.2793957E+01
  0.7684210E+00  0.2608672E+07 -0.1243966E+01  0.2502560E+07  0.1552192E+01  0.1051126E+07  0.3036085E+01  0.3329079E+07  0.1498765E+01  0.2654090E+09  0.5574169E+00  0.3884935E+09 -0.2607211E+01
  0.8631579E+00  0.4674011E+07 -0.1691271E+01  0.4554466E+07  0.1954986E+01  0.2254205E+07  0.2077186E+01  0.9141682E+07  0.1930201E+01  0.7185586E+08 -0.6329617E-01  0.5587594E+08 -0.1528718E+01
  0.9578947E+00  0.2819082E+07 -0.2128848E+01  0.2488754E+07  0.2003767E+01  0.1518248E+07  0.1478837E+01  0.6832924E+07  0.1955157E+01  0.7155429E+08 -0.2525175E+01  0.2249080E+09  0.2889890E+00