VARIABLES="Frequency (rad/s)" "|Fx| (N/m)" "|Fy| (N/m)" "|Fz| (N/m)" "|Cx| (N)" "|Cy| (N)" "|Cz| (N)" "ang(Fx) (°)" "ang(Fy) (°)" "ang(Fz) (°)" "ang(Cx) (°)" "ang(Cy) (°)" "ang(Cz) (°)"
Zone t="Corps  1"
Zone t="Excitation force - beta =   0.000 deg",I=    20,F=POINT
 0.2000  0.195885E+07  0.343822E+00  0.381799E+08  0.941236E+02  0.308884E+09  0.143320E+02  -89.98  178.83   -1.83    0.35  -89.98  128.58
 0.2947  0.376418E+07  0.226143E+01  0.307226E+08  0.270704E+02  0.566570E+09  0.231217E+02  -90.19   -0.48   -7.02  -10.27  -90.19  123.30
 0.3895  0.494385E+07  0.343940E+01  0.223704E+08  0.167874E+02  0.728800E+09  0.146076E+02  -92.63    7.42  -15.93   19.32  -92.51   97.41
 0.4842  0.437359E+07  0.108525E+00  0.134316E+08  0.632941E+02  0.709917E+09  0.342635E+02 -102.77  -15.20  -26.85    3.88 -100.75   99.51
 0.5789  0.208410E+07  0.241535E+00  0.455473E+07  0.893001E+01  0.554678E+09  0.599016E+02 -143.00  -87.85  -48.08 -154.83 -115.32  -62.74
 0.6737  0.337817E+07  0.578941E+00  0.196451E+07  0.705979E+01  0.290650E+09  0.337135E+02  112.48  -36.73 -174.39 -176.83 -132.86   71.18
 0.7684  0.447685E+07  0.719848E+00  0.264782E+07  0.443871E+01  0.684038E+08  0.170253E+02   84.55   22.87  138.68  -53.27  138.70   72.97
 0.8632  0.275558E+07  0.608413E-01  0.995125E+06  0.302273E+00  0.114224E+09  0.389328E+01    7.81   -4.03   75.97   69.82   55.01   60.57
 0.9579  0.461697E+07  0.112572E+00  0.112475E+07  0.141598E+01  0.502278E+08  0.315739E+01  -61.79  141.99  -40.08 -179.05    4.92  -53.36
 1.0526  0.315718E+07  0.269137E-01  0.792308E+06  0.714677E+00  0.447811E+08  0.740871E+01 -137.95 -132.83 -104.26  152.52 -122.10  -28.25
 1.1474  0.376398E+07  0.123963E+00  0.347592E+06  0.244792E+01  0.181036E+08  0.205211E+01  135.63 -178.94  151.43 -176.86 -166.26   62.59
 1.2421  0.280797E+07  0.283724E-01  0.414599E+06  0.334261E+00  0.251399E+08  0.224840E+01   37.09   84.01   53.35   81.70   29.04   99.16
 1.3368  0.278148E+07  0.868685E-01  0.286856E+06  0.692181E+00  0.126480E+08  0.450653E+01  -66.38  173.12  -63.40  165.70  -52.16   92.38
 1.4316  0.218666E+07  0.348609E-01  0.207448E+06  0.437262E+00  0.164435E+08  0.360253E+01  169.40  -24.09  179.90   31.57  153.02  -98.55
 1.5263  0.176674E+07  0.377252E-01  0.194552E+06  0.388899E+00  0.771690E+07  0.246138E+01   61.29 -172.09   39.61  -30.60  -67.99  104.01
 1.6211  0.196634E+07  0.145172E-01  0.139860E+06  0.108478E+00  0.340775E+07  0.253529E+01  -76.90   49.13 -125.03  -16.23 -147.12   69.52
 1.7158  0.165222E+07  0.162741E-01  0.526648E+05  0.124137E+00  0.775118E+07  0.417051E+01  135.28 -177.10   70.00  172.62   36.31  109.01
 1.8105  0.123215E+07  0.265214E-02  0.695922E+05  0.159448E+00  0.114856E+08  0.595374E+01   -9.64 -180.00    0.29  117.93 -117.30   85.64
 1.9053  0.997628E+06  0.864104E-02  0.193164E+06  0.130453E+00  0.911145E+07  0.203848E+00 -155.55   -9.93 -171.26   35.08   73.54    6.67
 2.0000  0.897515E+06  0.174693E-01  0.253873E+06  0.103080E+00  0.730455E+07  0.336573E+00   48.12 -153.43    0.49  175.65 -100.63  -68.20
Zone t="Excitation force - beta =  20.000 deg",I=    20,F=POINT
 0.2000  0.184460E+07  0.111551E+07  0.382441E+08  0.357167E+06  0.290542E+09  0.715185E+07  -89.98  -89.92   -1.83   90.07  -89.98    0.00
 0.2947  0.357423E+07  0.233780E+07  0.309719E+08  0.257979E+06  0.534909E+09  0.325160E+08  -90.19  -89.28   -7.02   90.78  -90.19    0.02
 0.3895  0.481519E+07  0.366993E+07  0.229790E+08  0.621230E+06  0.694937E+09  0.919639E+08  -92.56  -86.57  -15.99  -87.09  -92.49    0.34
 0.4842  0.458208E+07  0.424202E+07  0.145691E+08  0.217210E+07  0.691486E+09  0.190230E+09 -101.79  -79.67  -26.89  -80.90 -100.70    2.28
 0.5789  0.267520E+07  0.292814E+07  0.596848E+07  0.272764E+07  0.566698E+09  0.287327E+09 -129.21  -66.14  -44.18  -69.78 -115.45    8.97
 0.6737  0.249731E+07  0.797318E+06  0.146421E+07  0.869571E+06  0.345444E+09  0.263615E+09  125.01   29.51 -143.30    7.10 -132.25   21.68
 0.7684  0.450960E+07  0.274078E+07  0.255734E+07  0.446922E+07  0.950723E+08  0.898140E+08   89.63  102.67  141.05  100.10 -179.19   57.02
 0.8632  0.317354E+07  0.212794E+07  0.148839E+07  0.487952E+07  0.922892E+08  0.153063E+09   43.96  123.56   96.78  117.77   61.57 -175.20
 0.9579  0.377622E+07  0.108704E+07  0.852458E+06  0.227432E+07  0.751418E+08  0.162879E+09  -46.97 -107.58  -12.05 -114.56   16.85 -153.31
 1.0526  0.364782E+07  0.199783E+07  0.956890E+06  0.621589E+07  0.286080E+08  0.580481E+08 -102.23  -68.70  -86.36  -69.99  -81.24  -27.12
 1.1474  0.300125E+07  0.568451E+06  0.276785E+06  0.146425E+07  0.288563E+08  0.143339E+09  164.60   52.69  147.89   37.69 -157.82   20.61
 1.2421  0.282270E+07  0.149719E+07  0.461641E+06  0.556300E+07  0.198001E+08  0.397070E+08   82.58  110.01   84.64  114.02   96.57  157.00
 1.3368  0.214903E+07  0.657332E+06  0.258421E+06  0.192124E+07  0.180852E+08  0.992902E+08  -22.98  -94.07  -20.47  -89.32  -28.57 -155.03
 1.4316  0.213863E+07  0.835847E+06  0.165436E+06  0.323492E+07  0.631111E+07  0.626111E+08 -120.65  -68.30 -155.90  -65.52  -83.06   17.92
 1.5263  0.177688E+07  0.702633E+06  0.296769E+05  0.277030E+07  0.303624E+08  0.327564E+08   86.89  113.75 -165.39  118.76   73.98   27.66
 1.6211  0.511698E+06  0.643471E+05  0.214336E+06  0.224857E+05  0.210944E+08  0.483854E+08   11.35  -90.76   33.02    9.48 -144.01 -154.97
 1.7158  0.117919E+07  0.333146E+06  0.348902E+06  0.140662E+07  0.106386E+08  0.186362E+08 -104.61  -90.44 -150.29  -84.98   18.91   18.26
 1.8105  0.123274E+07  0.387064E+06  0.408212E+06  0.152887E+07  0.649000E+07  0.110444E+08   94.58   84.02   17.59   87.39  157.92   -0.05
 1.9053  0.930081E+06  0.257368E+06  0.335588E+06  0.994720E+06  0.529535E+07  0.251723E+08  -70.07 -101.19  172.02  -99.82  -51.52  178.56
 2.0000  0.618295E+06  0.979156E+05  0.200146E+06  0.348627E+06  0.508923E+07  0.264878E+08  124.64   65.82  -31.55   61.79  113.96    4.08
Zone t="Excitation force - beta =  40.000 deg",I=    20,F=POINT
 0.2000  0.151175E+07  0.210514E+07  0.384071E+08  0.675955E+06  0.237442E+09  0.109830E+08  -89.98  -89.92   -1.83   90.07  -89.98    0.00
 0.2947  0.299096E+07  0.448088E+07  0.316079E+08  0.512750E+06  0.441268E+09  0.503706E+08  -90.18  -89.28   -7.04   90.76  -90.18    0.02
 0.3895  0.428631E+07  0.733850E+07  0.245574E+08  0.115700E+07  0.587694E+09  0.145799E+09  -92.38  -86.58  -16.12  -86.89  -92.44    0.34
 0.4842  0.479526E+07  0.936323E+07  0.176432E+08  0.454138E+07  0.615987E+09  0.317169E+09  -99.87  -79.89  -27.05  -80.59 -100.58    2.28
 0.5789  0.426158E+07  0.829480E+07  0.102572E+08  0.718287E+07  0.563602E+09  0.529356E+09 -112.95  -69.08  -39.25  -70.98 -115.81    8.87
 0.6737  0.212680E+07  0.375947E+07  0.380363E+07  0.506598E+07  0.462926E+09  0.596869E+09 -140.75  -48.42  -62.25  -54.75 -131.99   19.92
 0.7684  0.260867E+07  0.250256E+07  0.105112E+07  0.332908E+07  0.265409E+09  0.388494E+09  108.73   88.93  173.96   85.87 -148.06   30.62
 0.8632  0.467401E+07  0.455447E+07  0.225421E+07  0.914169E+07  0.718560E+08  0.558760E+08   83.10  112.01  119.01  110.59  176.37   92.41
 0.9579  0.281909E+07  0.248876E+07  0.151825E+07  0.683294E+07  0.715542E+08  0.224908E+09   58.03  114.81   84.73  112.02   35.32 -163.44
 1.0526  0.265984E+07  0.905111E+06  0.512987E+06  0.163067E+07  0.702363E+08  0.202840E+09  -42.38  -82.16   -6.83  -76.00    6.35 -168.23
 1.1474  0.277556E+07  0.228880E+07  0.396798E+06  0.719669E+07  0.727828E+07  0.137860E+08  -83.35  -88.72  -79.52  -84.42  -88.68  173.50
 1.2421  0.176461E+07  0.739445E+06  0.331550E+06  0.341695E+07  0.176910E+08  0.143919E+09 -157.94  -93.83 -162.37  -87.82 -171.62   -2.79
 1.3368  0.186947E+07  0.135265E+07  0.173122E+06  0.426488E+07  0.382323E+08  0.748015E+08  106.28   79.01 -130.54   88.05  131.73   -3.12
 1.4316  0.635213E+06  0.845493E+06  0.392641E+06  0.345168E+07  0.327153E+08  0.699309E+08   11.81   77.49   46.30   82.29  -55.56  172.50
 1.5263  0.723813E+06  0.561314E+06  0.168886E+06  0.186156E+07  0.618527E+07  0.482078E+08  -53.34 -115.62 -123.44 -105.76    6.18  178.71
 1.6211  0.425133E+06  0.252769E+06  0.699523E+05  0.147847E+07  0.701656E+07  0.259022E+08 -119.72 -101.03 -167.74  -90.69   81.60  -33.19
 1.7158  0.182230E+06  0.246991E+06  0.157124E+06  0.126554E+07  0.979273E+06  0.150590E+08   95.34   36.33   51.11   45.18  105.36   31.75
 1.8105  0.164830E+06  0.366774E+05  0.148515E+05  0.378838E+06  0.246144E+07  0.118245E+08  117.26   24.81  -45.16 -174.65   56.39   45.69
 1.9053  0.124838E+06  0.238156E+06  0.937143E+04  0.428936E+06  0.111682E+07  0.277491E+08   31.55  132.92  162.21  123.41 -102.54 -170.25
 2.0000  0.279892E+06  0.406614E+06  0.346275E+05  0.998162E+06  0.902423E+06  0.715682E+07  -99.99  -66.29  163.16  -66.40 -114.38   -8.53
Zone t="Excitation force - beta =  60.000 deg",I=    20,F=POINT
 0.2000  0.992700E+06  0.284957E+07  0.385929E+08  0.917957E+06  0.155418E+09  0.968387E+07  -89.98  -89.92   -1.83   90.07  -89.98    0.00
 0.2947  0.201039E+07  0.617228E+07  0.323396E+08  0.734856E+06  0.291913E+09  0.448522E+08  -90.17  -89.28   -7.05   90.73  -90.18    0.02
 0.3895  0.307849E+07  0.105873E+08  0.264184E+08  0.153081E+07  0.399711E+09  0.133228E+09  -92.20  -86.60  -16.27  -86.61  -92.39    0.34
 0.4842  0.401814E+07  0.149356E+08  0.214940E+08  0.680075E+07  0.443150E+09  0.306085E+09  -98.33  -80.09  -27.31  -80.18 -100.44    2.28
 0.5789  0.490346E+07  0.163331E+08  0.164508E+08  0.130799E+08  0.452672E+09  0.565383E+09 -105.61  -71.07  -36.98  -71.44 -116.27    8.78
 0.6737  0.507405E+07  0.132536E+08  0.107230E+08  0.155902E+08  0.479130E+09  0.764601E+09 -106.56  -64.19  -47.40  -65.20 -132.67   18.59
 0.7684  0.321011E+07  0.741070E+07  0.551623E+07  0.119165E+08  0.430587E+09  0.750484E+09 -111.23  -62.57  -60.73  -64.79 -141.34   22.02
 0.8632  0.120608E+07  0.187728E+07  0.160262E+07  0.462787E+07  0.295177E+09  0.600026E+09 -165.62  -66.13  -94.39  -72.97 -153.96   17.27
 0.9579  0.221706E+07  0.221395E+07  0.861875E+06  0.373407E+07  0.155121E+09  0.369346E+09  115.83   95.49  151.93   97.54 -172.90    8.98
 1.0526  0.295893E+07  0.400462E+07  0.121415E+07  0.972038E+07  0.534634E+08  0.104848E+09   94.77   88.12   97.43   89.68  158.07   -3.36
 1.1474  0.200359E+07  0.336388E+07  0.208106E+06  0.999393E+07  0.359662E+08  0.101504E+09   80.05   74.84   46.19   78.72   -4.40  164.42
 1.2421  0.561516E+06  0.121164E+07  0.102668E+07  0.486485E+07  0.776782E+08  0.191887E+09   16.52   68.90   44.42   78.28  -47.05  153.78
 1.3368  0.685531E+06  0.804622E+06  0.553226E+05  0.180001E+07  0.291618E+08  0.137805E+09  -42.26 -143.25  -61.93 -157.79  -54.47  149.04
 1.4316  0.361378E+06  0.149944E+07  0.236896E+06  0.486381E+07  0.268678E+07  0.592195E+08  -88.27 -140.66 -151.43 -137.55  -93.03 -157.50
 1.5263  0.175389E+06  0.461422E+06  0.107265E+06  0.199953E+07  0.956604E+07  0.358948E+08 -112.26   46.02 -170.53  -52.22   85.22  -62.75
 1.6211  0.346421E+06  0.678468E+06  0.208951E+05  0.186606E+07  0.532044E+07  0.529565E+08  -78.82  -57.61    4.72  -58.47   76.69 -115.89
 1.7158  0.357251E+06  0.750183E+06  0.107801E+06  0.198477E+07  0.158237E+07  0.320055E+08  -95.51  -55.87   89.36  -56.47 -159.49   16.97
 1.8105  0.200906E+06  0.196012E+05  0.108166E+06  0.130519E+06  0.799067E+07  0.542634E+08  167.92   63.21 -179.98   88.26   54.94    7.99
 1.9053  0.531878E+06  0.575050E+06  0.203384E+06  0.170367E+07  0.760084E+07  0.119778E+08   97.40   84.09   13.15   83.69  159.69   -5.08
 2.0000  0.104508E+06  0.236450E+06  0.390536E+05  0.730961E+06  0.401119E+07  0.293828E+08    4.68  102.37  111.88   98.18  -72.57  169.07
Zone t="Excitation force - beta =  80.000 deg",I=    20,F=POINT
 0.2000  0.346119E+06  0.325031E+07  0.387144E+08  0.104926E+07  0.540758E+08  0.383104E+07  -89.98  -89.92   -1.83   90.07  -89.98    0.00
 0.2947  0.711563E+06  0.712024E+07  0.328220E+08  0.869171E+06  0.102270E+09  0.178581E+08  -90.17  -89.28   -7.06   90.71  -90.17    0.02
 0.3895  0.113544E+07  0.125753E+08  0.276720E+08  0.171176E+07  0.142554E+09  0.539342E+08  -92.09  -86.60  -16.36  -86.41  -92.35    0.34
 0.4842  0.161830E+07  0.188361E+08  0.242231E+08  0.821945E+07  0.163691E+09  0.128225E+09  -97.56  -80.20  -27.50  -79.87 -100.36    2.28
 0.5789  0.230399E+07  0.230286E+08  0.213380E+08  0.175205E+08  0.178432E+09  0.251613E+09 -102.96  -71.97  -36.27  -71.42 -116.60    8.73
 0.6737  0.310510E+07  0.234427E+08  0.173357E+08  0.255554E+08  0.216516E+09  0.375505E+09 -100.87  -68.02  -44.27  -67.44 -133.35   17.94
 0.7684  0.334235E+07  0.217836E+08  0.132952E+08  0.308868E+08  0.237613E+09  0.441931E+09  -98.45  -69.64  -55.35  -69.26 -139.81   19.08
 0.8632  0.368612E+07  0.188047E+08  0.990040E+07  0.326156E+08  0.213204E+09  0.496234E+09 -100.83  -75.76  -67.52  -75.46 -151.42   13.34
 0.9579  0.335574E+07  0.155535E+08  0.678555E+07  0.316677E+08  0.193830E+09  0.509572E+09  -93.17  -86.54  -81.30  -86.41 -165.20    4.13
 1.0526  0.273949E+07  0.124065E+08  0.418927E+07  0.289103E+08  0.144737E+09  0.503557E+09  -96.27 -100.11  -97.18  -99.85 -179.64   -9.78
 1.1474  0.190247E+07  0.940006E+07  0.525734E+07  0.245518E+08  0.465046E+08  0.484286E+09  -95.31 -115.91   96.55 -115.01  165.82  -27.71
 1.2421  0.892728E+06  0.653690E+07  0.227826E+07  0.188141E+08  0.126633E+09  0.443060E+09  -94.87 -131.91 -138.90 -129.50  132.98  -45.97
 1.3368  0.334543E+06  0.402954E+07  0.106727E+07  0.129576E+08  0.770519E+08  0.397380E+09 -111.04 -145.34 -157.32 -141.30  114.51  -64.48
 1.4316  0.934268E+05  0.139842E+07  0.397003E+06  0.808158E+07  0.446893E+08  0.257497E+09 -147.26 -106.33 -177.41 -123.57   92.86  -73.19
 1.5263  0.616190E+05  0.497644E+06  0.561251E+05  0.843886E+06  0.193447E+08  0.291681E+09  -89.49 -163.81  172.04 -136.37   71.10 -126.39
 1.6211  0.248081E+06  0.112243E+07  0.624803E+05  0.356549E+07  0.264134E+07  0.181132E+09  -77.07  -58.51  -66.55  -60.11 -155.67 -142.78
 1.7158  0.439243E+06  0.161567E+07  0.816641E+05  0.493926E+07  0.366576E+08  0.909045E+08  -82.40  -77.53  150.28  -77.81 -143.61 -167.68
 1.8105  0.476192E+06  0.163121E+07  0.639464E+06  0.504181E+07  0.245691E+08  0.233812E+08  -78.39 -101.41 -145.45 -101.46  -21.18  170.81
 1.9053  0.222391E+06  0.120242E+07  0.205492E+06  0.393168E+07  0.101275E+07  0.214402E+08  -88.10 -121.75 -146.52 -121.99   84.70  -57.02
 2.0000  0.513383E+05  0.211610E+06  0.542911E+05  0.922323E+06  0.199978E+07  0.239137E+08 -113.02  -10.48 -170.46  -82.63  103.76  -81.32
Zone t="Excitation force - beta = 100.000 deg",I=    20,F=POINT
 0.2000  0.346119E+06  0.325031E+07  0.387144E+08  0.104926E+07  0.540758E+08  0.383105E+07   90.02  -89.92   -1.83   90.08   90.02 -180.00
 0.2947  0.711563E+06  0.712024E+07  0.328220E+08  0.869170E+06  0.102270E+09  0.178581E+08   89.83  -89.28   -7.06   90.71   89.83 -179.98
 0.3895  0.113544E+07  0.125753E+08  0.276720E+08  0.171174E+07  0.142554E+09  0.539342E+08   87.91  -86.60  -16.36  -86.41   87.65 -179.66
 0.4842  0.161831E+07  0.188361E+08  0.242231E+08  0.821945E+07  0.163691E+09  0.128225E+09   82.44  -80.20  -27.50  -79.87   79.64 -177.72
 0.5789  0.230399E+07  0.230286E+08  0.213380E+08  0.175205E+08  0.178433E+09  0.251613E+09   77.04  -71.97  -36.27  -71.42   63.40 -171.27
 0.6737  0.310511E+07  0.234427E+08  0.173357E+08  0.255553E+08  0.216516E+09  0.375505E+09   79.13  -68.02  -44.27  -67.44   46.65 -162.06
 0.7684  0.334235E+07  0.217836E+08  0.132952E+08  0.308868E+08  0.237613E+09  0.441931E+09   81.55  -69.64  -55.35  -69.26   40.19 -160.92
 0.8632  0.368613E+07  0.188047E+08  0.990039E+07  0.326156E+08  0.213204E+09  0.496234E+09   79.17  -75.76  -67.52  -75.46   28.58 -166.66
 0.9579  0.335574E+07  0.155535E+08  0.678555E+07  0.316677E+08  0.193830E+09  0.509572E+09   86.83  -86.54  -81.30  -86.41   14.80 -175.87
 1.0526  0.273949E+07  0.124065E+08  0.418927E+07  0.289103E+08  0.144737E+09  0.503557E+09   83.73 -100.11  -97.18  -99.85    0.36  170.22
 1.1474  0.190246E+07  0.940005E+07  0.525734E+07  0.245517E+08  0.465055E+08  0.484286E+09   84.69 -115.91   96.55 -115.01  -14.18  152.29
 1.2421  0.892726E+06  0.653689E+07  0.227826E+07  0.188141E+08  0.126633E+09  0.443060E+09   85.13 -131.91 -138.90 -129.50  -47.02  134.03
 1.3368  0.334543E+06  0.402954E+07  0.106727E+07  0.129576E+08  0.770520E+08  0.397380E+09   68.96 -145.34 -157.32 -141.30  -65.49  115.52
 1.4316  0.934273E+05  0.139841E+07  0.397003E+06  0.808159E+07  0.446893E+08  0.257497E+09   32.74 -106.33 -177.41 -123.57  -87.14  106.81
 1.5263  0.616195E+05  0.497641E+06  0.561250E+05  0.843894E+06  0.193447E+08  0.291681E+09   90.51 -163.81  172.04 -136.37 -108.90   53.61
 1.6211  0.248082E+06  0.112244E+07  0.624803E+05  0.356550E+07  0.264136E+07  0.181131E+09  102.93  -58.51  -66.55  -60.11   24.33   37.22
 1.7158  0.439244E+06  0.161568E+07  0.816652E+05  0.493926E+07  0.366576E+08  0.909041E+08   97.60  -77.53  150.28  -77.81   36.39   12.32
 1.8105  0.476193E+06  0.163122E+07  0.639465E+06  0.504181E+07  0.245690E+08  0.233809E+08  101.61 -101.41 -145.45 -101.46  158.82   -9.19
 1.9053  0.222391E+06  0.120242E+07  0.205492E+06  0.393168E+07  0.101277E+07  0.214404E+08   91.90 -121.75 -146.52 -121.99  -95.30  122.98
 2.0000  0.513383E+05  0.211611E+06  0.542908E+05  0.922324E+06  0.199980E+07  0.239137E+08   66.98  -10.48 -170.46  -82.63  -76.24   98.68
Zone t="Excitation force - beta = 120.000 deg",I=    20,F=POINT
 0.2000  0.992700E+06  0.284957E+07  0.385929E+08  0.917955E+06  0.155418E+09  0.968386E+07   90.02  -89.92   -1.83   90.07   90.02 -180.00
 0.2947  0.201039E+07  0.617228E+07  0.323396E+08  0.734843E+06  0.291913E+09  0.448523E+08   89.83  -89.28   -7.05   90.72   89.82 -179.98
 0.3895  0.307849E+07  0.105873E+08  0.264184E+08  0.153085E+07  0.399711E+09  0.133228E+09   87.80  -86.60  -16.27  -86.62   87.61 -179.66
 0.4842  0.401814E+07  0.149356E+08  0.214940E+08  0.680075E+07  0.443151E+09  0.306085E+09   81.67  -80.09  -27.31  -80.18   79.56 -177.72
 0.5789  0.490346E+07  0.163331E+08  0.164508E+08  0.130799E+08  0.452672E+09  0.565383E+09   74.39  -71.07  -36.98  -71.44   63.73 -171.22
 0.6737  0.507406E+07  0.132536E+08  0.107230E+08  0.155902E+08  0.479131E+09  0.764601E+09   73.44  -64.19  -47.40  -65.20   47.33 -161.41
 0.7684  0.321011E+07  0.741069E+07  0.551622E+07  0.119165E+08  0.430588E+09  0.750483E+09   68.77  -62.57  -60.73  -64.79   38.66 -157.98
 0.8632  0.120608E+07  0.187727E+07  0.160262E+07  0.462785E+07  0.295177E+09  0.600026E+09   14.38  -66.13  -94.39  -72.97   26.04 -162.73
 0.9579  0.221707E+07  0.221395E+07  0.861875E+06  0.373408E+07  0.155121E+09  0.369346E+09  -64.17   95.49  151.93   97.54    7.10 -171.02
 1.0526  0.295893E+07  0.400462E+07  0.121415E+07  0.972037E+07  0.534635E+08  0.104847E+09  -85.23   88.12   97.43   89.68  -21.93  176.64
 1.1474  0.200358E+07  0.336387E+07  0.208101E+06  0.999392E+07  0.359660E+08  0.101504E+09  -99.95   74.84   46.19   78.72  175.60  -15.58
 1.2421  0.561514E+06  0.121164E+07  0.102668E+07  0.486483E+07  0.776782E+08  0.191887E+09 -163.48   68.90   44.42   78.28  132.95  -26.22
 1.3368  0.685531E+06  0.804625E+06  0.553219E+05  0.180001E+07  0.291616E+08  0.137805E+09  137.74 -143.25  -61.93 -157.79  125.53  -30.96
 1.4316  0.361378E+06  0.149944E+07  0.236896E+06  0.486382E+07  0.268680E+07  0.592194E+08   91.73 -140.66 -151.43 -137.55   86.97   22.50
 1.5263  0.175389E+06  0.461425E+06  0.107265E+06  0.199955E+07  0.956600E+07  0.358948E+08   67.74   46.02 -170.53  -52.22  -94.78  117.25
 1.6211  0.346422E+06  0.678471E+06  0.208949E+05  0.186607E+07  0.532044E+07  0.529564E+08  101.18  -57.61    4.72  -58.47 -103.31   64.11
 1.7158  0.357250E+06  0.750182E+06  0.107802E+06  0.198477E+07  0.158238E+07  0.320056E+08   84.49  -55.87   89.36  -56.47   20.51 -163.03
 1.8105  0.200906E+06  0.196029E+05  0.108164E+06  0.130527E+06  0.799070E+07  0.542634E+08  -12.08   63.22 -179.98   88.26 -125.06 -172.01
 1.9053  0.531878E+06  0.575051E+06  0.203384E+06  0.170367E+07  0.760081E+07  0.119777E+08  -82.60   84.09   13.15   83.69  -20.31  174.92
 2.0000  0.104508E+06  0.236449E+06  0.390537E+05  0.730958E+06  0.401120E+07  0.293829E+08 -175.32  102.37  111.88   98.18  107.43  -10.93
Zone t="Excitation force - beta = 140.000 deg",I=    20,F=POINT
 0.2000  0.151175E+07  0.210514E+07  0.384071E+08  0.675957E+06  0.237442E+09  0.109830E+08   90.02  -89.92   -1.83   90.08   90.02 -180.00
 0.2947  0.299096E+07  0.448088E+07  0.316079E+08  0.512750E+06  0.441268E+09  0.503705E+08   89.82  -89.28   -7.04   90.75   89.82 -179.98
 0.3895  0.428631E+07  0.733849E+07  0.245574E+08  0.115702E+07  0.587694E+09  0.145799E+09   87.62  -86.58  -16.12  -86.89   87.56 -179.66
 0.4842  0.479526E+07  0.936322E+07  0.176432E+08  0.454135E+07  0.615987E+09  0.317169E+09   80.13  -79.89  -27.05  -80.59   79.42 -177.72
 0.5789  0.426158E+07  0.829480E+07  0.102572E+08  0.718287E+07  0.563602E+09  0.529356E+09   67.05  -69.08  -39.25  -70.98   64.19 -171.13
 0.6737  0.212680E+07  0.375946E+07  0.380362E+07  0.506597E+07  0.462927E+09  0.596868E+09   39.25  -48.42  -62.25  -54.75   48.01 -160.08
 0.7684  0.260867E+07  0.250256E+07  0.105113E+07  0.332908E+07  0.265409E+09  0.388494E+09  -71.27   88.93  173.95   85.87   31.94 -149.38
 0.8632  0.467401E+07  0.455447E+07  0.225421E+07  0.914168E+07  0.718559E+08  0.558759E+08  -96.90  112.01  119.01  110.59   -3.63  -87.59
 0.9579  0.281908E+07  0.248875E+07  0.151825E+07  0.683292E+07  0.715543E+08  0.224908E+09 -121.97  114.81   84.73  112.02 -144.68   16.56
 1.0526  0.265984E+07  0.905113E+06  0.512988E+06  0.163067E+07  0.702363E+08  0.202840E+09  137.62  -82.16   -6.83  -76.00 -173.65   11.77
 1.1474  0.277556E+07  0.228880E+07  0.396799E+06  0.719669E+07  0.727820E+07  0.137856E+08   96.65  -88.72  -79.52  -84.42   91.31   -6.50
 1.2421  0.176461E+07  0.739441E+06  0.331552E+06  0.341693E+07  0.176911E+08  0.143919E+09   22.06  -93.83 -162.37  -87.82    8.38  177.21
 1.3368  0.186947E+07  0.135265E+07  0.173123E+06  0.426489E+07  0.382320E+08  0.748012E+08  -73.72   79.01 -130.54   88.05  -48.27  176.88
 1.4316  0.635212E+06  0.845488E+06  0.392641E+06  0.345167E+07  0.327154E+08  0.699312E+08 -168.19   77.49   46.30   82.29  124.44   -7.50
 1.5263  0.723813E+06  0.561316E+06  0.168887E+06  0.186157E+07  0.618532E+07  0.482077E+08  126.66 -115.62 -123.44 -105.76 -173.82   -1.29
 1.6211  0.425133E+06  0.252766E+06  0.699522E+05  0.147846E+07  0.701656E+07  0.259024E+08   60.28 -101.03 -167.74  -90.69  -98.40  146.81
 1.7158  0.182231E+06  0.246992E+06  0.157124E+06  0.126554E+07  0.979282E+06  0.150591E+08  -84.66   36.33   51.11   45.18  -74.64 -148.25
 1.8105  0.164830E+06  0.366773E+05  0.148520E+05  0.378837E+06  0.246142E+07  0.118244E+08  -62.74   24.82  -45.16 -174.65 -123.61 -134.31
 1.9053  0.124837E+06  0.238155E+06  0.937148E+04  0.428933E+06  0.111682E+07  0.277491E+08 -148.45  132.92  162.22  123.41   77.46    9.75
 2.0000  0.279891E+06  0.406614E+06  0.346271E+05  0.998162E+06  0.902398E+06  0.715697E+07   80.01  -66.29  163.16  -66.40   65.62  171.47
Zone t="Excitation force - beta = 160.000 deg",I=    20,F=POINT
 0.2000  0.184460E+07  0.111551E+07  0.382442E+08  0.357168E+06  0.290542E+09  0.715186E+07   90.02  -89.92   -1.83   90.07   90.02 -180.00
 0.2947  0.357423E+07  0.233780E+07  0.309719E+08  0.257968E+06  0.534909E+09  0.325160E+08   89.81  -89.28   -7.02   90.79   89.81 -179.98
 0.3895  0.481519E+07  0.366993E+07  0.229790E+08  0.621252E+06  0.694937E+09  0.919639E+08   87.44  -86.57  -15.99  -87.09   87.51 -179.66
 0.4842  0.458208E+07  0.424202E+07  0.145691E+08  0.217210E+07  0.691486E+09  0.190229E+09   78.21  -79.67  -26.89  -80.90   79.30 -177.72
 0.5789  0.267520E+07  0.292813E+07  0.596847E+07  0.272764E+07  0.566698E+09  0.287327E+09   50.79  -66.14  -44.18  -69.78   64.55 -171.03
 0.6737  0.249731E+07  0.797317E+06  0.146421E+07  0.869574E+06  0.345444E+09  0.263615E+09  -54.99   29.51 -143.30    7.10   47.75 -158.32
 0.7684  0.450960E+07  0.274078E+07  0.255734E+07  0.446923E+07  0.950723E+08  0.898140E+08  -90.37  102.67  141.05  100.10    0.81 -122.98
 0.8632  0.317354E+07  0.212794E+07  0.148839E+07  0.487952E+07  0.922892E+08  0.153063E+09 -136.04  123.56   96.78  117.77 -118.43    4.80
 0.9579  0.377622E+07  0.108704E+07  0.852459E+06  0.227433E+07  0.751417E+08  0.162879E+09  133.03 -107.58  -12.05 -114.56 -163.15   26.69
 1.0526  0.364782E+07  0.199783E+07  0.956890E+06  0.621589E+07  0.286081E+08  0.580481E+08   77.77  -68.70  -86.36  -69.99   98.76  152.88
 1.1474  0.300125E+07  0.568452E+06  0.276784E+06  0.146425E+07  0.288564E+08  0.143339E+09  -15.40   52.69  147.89   37.69   22.18 -159.39
 1.2421  0.282270E+07  0.149719E+07  0.461643E+06  0.556300E+07  0.198001E+08  0.397070E+08  -97.42  110.01   84.64  114.02  -83.43  -23.00
 1.3368  0.214903E+07  0.657332E+06  0.258420E+06  0.192125E+07  0.180852E+08  0.992903E+08  157.02  -94.07  -20.47  -89.32  151.43   24.97
 1.4316  0.213863E+07  0.835846E+06  0.165436E+06  0.323492E+07  0.631112E+07  0.626112E+08   59.35  -68.30 -155.90  -65.52   96.94 -162.08
 1.5263  0.177688E+07  0.702632E+06  0.296783E+05  0.277030E+07  0.303624E+08  0.327563E+08  -93.11  113.75 -165.38  118.76 -106.02 -152.34
 1.6211  0.511697E+06  0.643486E+05  0.214338E+06  0.224853E+05  0.210944E+08  0.483854E+08 -168.65  -90.75   33.02    9.46   35.99   25.03
 1.7158  0.117919E+07  0.333146E+06  0.348902E+06  0.140662E+07  0.106385E+08  0.186362E+08   75.39  -90.44 -150.29  -84.98 -161.09 -161.74
 1.8105  0.123274E+07  0.387064E+06  0.408212E+06  0.152888E+07  0.649002E+07  0.110443E+08  -85.42   84.02   17.59   87.39  -22.08  179.95
 1.9053  0.930081E+06  0.257367E+06  0.335588E+06  0.994721E+06  0.529533E+07  0.251723E+08  109.93 -101.19  172.02  -99.82  128.48   -1.44
 2.0000  0.618296E+06  0.979159E+05  0.200146E+06  0.348628E+06  0.508923E+07  0.264879E+08  -55.36   65.82  -31.55   61.79  -66.04 -175.92
Zone t="Excitation force - beta = 180.000 deg",I=    20,F=POINT
 0.2000  0.195885E+07  0.640229E+00  0.381799E+08  0.954938E+02  0.308884E+09  0.143078E+02   90.02  164.06   -1.83   -0.03   90.02 -123.63
 0.2947  0.376418E+07  0.250226E+01  0.307226E+08  0.178837E+02  0.566570E+09  0.175089E+02   89.81    5.29   -7.02   21.87   89.81 -116.98
 0.3895  0.494385E+07  0.375066E+01  0.223704E+08  0.222163E+02  0.728800E+09  0.852182E+01   87.37   -0.04  -15.93    2.07   87.49 -102.28
 0.4842  0.437360E+07  0.520914E+00  0.134316E+08  0.749892E+02  0.709917E+09  0.605023E+02   77.23   99.53  -26.85    4.06   79.24  -68.40
 0.5789  0.208410E+07  0.839672E+00  0.455473E+07  0.730049E+01  0.554678E+09  0.871708E+02   37.00   78.42  -48.08   -4.70   64.68   37.29
 0.6737  0.337817E+07  0.498893E+00  0.196450E+07  0.634312E+01  0.290650E+09  0.398011E+02  -67.52   42.71 -174.39  173.44   47.14  -53.20
 0.7684  0.447685E+07  0.917122E+00  0.264782E+07  0.189766E+01  0.684038E+08  0.193234E+02  -95.45   17.40  138.68 -110.38  -41.30   37.29
 0.8632  0.275558E+07  0.826013E+00  0.995126E+06  0.238076E+01  0.114224E+09  0.792543E+01 -172.19   27.62   75.97   38.82 -124.99 -125.67
 0.9579  0.461697E+07  0.470691E+00  0.112475E+07  0.212302E+01  0.502276E+08  0.174770E+02  118.21  110.82  -40.08 -162.67 -175.08  -74.32
 1.0526  0.315718E+07  0.401788E+00  0.792310E+06  0.425883E+01  0.447811E+08  0.266806E+02   42.05 -178.12 -104.26  171.66   57.90  -33.44
 1.1474  0.376398E+07  0.460935E+00  0.347591E+06  0.139032E+01  0.181037E+08  0.124346E+02  -44.37 -156.40  151.43  -88.38   13.74   81.99
 1.2421  0.280797E+07  0.485979E+00  0.414602E+06  0.176146E+01  0.251399E+08  0.167977E+02 -142.91  -35.98   53.35  -55.83 -150.96 -160.83
 1.3368  0.278148E+07  0.365008E+00  0.286857E+06  0.191211E+01  0.126479E+08  0.141265E+02  113.62  170.57  -63.40 -149.18  127.83  -88.51
 1.4316  0.218666E+07  0.122130E+00  0.207449E+06  0.588538E+00  0.164436E+08  0.281603E+01  -10.60 -118.91  179.90   50.47  -26.98   70.99
 1.5263  0.176674E+07  0.250772E+00  0.194553E+06  0.663125E+00  0.771688E+07  0.131783E+02 -118.71   55.86   39.61   80.01  112.01 -158.88
 1.6211  0.196634E+07  0.370418E+00  0.139860E+06  0.106790E+01  0.340780E+07  0.114161E+01  103.10  102.91 -125.03  111.54   32.88  -26.12
 1.7158  0.165222E+07  0.322913E+00  0.526647E+05  0.122755E+01  0.775119E+07  0.704551E+01  -44.72   91.58   70.00   96.23 -143.69   19.89
 1.8105  0.123215E+07  0.782620E-01  0.695927E+05  0.685474E-01  0.114856E+08  0.555714E+01  170.36  -10.66    0.29  -23.40   62.70  -52.31
 1.9053  0.997628E+06  0.145418E+00  0.193164E+06  0.620225E+00  0.911145E+07  0.878082E+01   24.45 -138.82 -171.26 -104.40 -106.45   23.86
 2.0000  0.897515E+06  0.280303E+00  0.253873E+06  0.937891E+00  0.730455E+07  0.233399E+01 -131.88  -79.26    0.49  -82.42   79.37  148.97
