VARIABLES="w (rad/s)"
"abs(F   1   1)" "angle(F   1   1)"
"abs(F   1   2)" "angle(F   1   2)"
"abs(F   1   3)" "angle(F   1   3)"
"abs(F   1   4)" "angle(F   1   4)"
"abs(F   1   5)" "angle(F   1   5)"
"abs(F   1   6)" "angle(F   1   6)"
Zone t="FKforce - beta =   0.000",I=    20,F=POINT
  0.2000000E+00  0.1780798E+07 -0.1570796E+01  0.4230308E+00 -0.3067654E+01  0.4276682E+08  0.1096060E-08  0.1013750E+03  0.4623921E-03  0.3199884E+09 -0.1570796E+01  0.1405027E+02  0.2220525E+01
  0.2947368E+00  0.3558550E+07 -0.1570796E+01  0.2547642E+01 -0.2453495E-01  0.3843910E+08 -0.4877845E-08  0.3063017E+02  0.1836528E-01  0.6395140E+09 -0.1570796E+01  0.2163078E+02  0.2104278E+01
  0.3894737E+00  0.5122854E+07 -0.1570796E+01  0.3608200E+01  0.6066300E-01  0.3065012E+08  0.0000000E+00  0.2020384E+02 -0.4022597E-01  0.9539908E+09 -0.1570796E+01  0.1049405E+02  0.1786881E+01
  0.4842105E+00  0.5231883E+07 -0.1570796E+01  0.3079998E+00  0.1301207E+01  0.1940189E+08 -0.1288534E-07  0.6243204E+02  0.8268399E-01  0.1113458E+10 -0.1570796E+01  0.4854383E+02  0.1613297E+01
  0.5789474E+00  0.2793222E+07 -0.1570796E+01  0.3906250E+00 -0.1570796E+01  0.6874627E+07  0.2727421E-07  0.1349551E+01  0.7362574E+00  0.9759389E+09 -0.1570796E+01  0.4637770E+02 -0.1581578E+01
  0.6736842E+00  0.1553496E+07  0.1570796E+01  0.4807228E+00 -0.4999952E+00  0.2652623E+07  0.3141593E+01  0.3416877E+01 -0.2934332E+01  0.5344698E+09 -0.1570796E+01  0.3638874E+02  0.1598281E+01
  0.7684210E+00  0.4427550E+07  0.1570796E+01  0.5939556E+00  0.2630972E-01  0.5403478E+07 -0.3141593E+01  0.3154016E+01 -0.2708143E+00  0.1273375E+08 -0.1570797E+01  0.7259692E+01  0.1519118E+01
  0.8631579E+00  0.2327612E+07  0.1570796E+01  0.3125000E-01 -0.1570796E+01  0.2071636E+07  0.3141593E+01  0.1459495E+01 -0.2870646E+01  0.2498925E+09  0.1570796E+01  0.1505199E+01  0.2297439E+01
  0.9578947E+00  0.2594934E+07 -0.1570796E+01  0.7812500E-01  0.2498091E+01  0.1707076E+07 -0.4576538E-08  0.7467785E+00 -0.8372036E+00  0.1361102E+09  0.1570796E+01  0.2019437E+01 -0.1951303E+01
  0.1052631E+01  0.2909282E+07 -0.1570796E+01  0.4572148E-01 -0.2792822E+01  0.1426704E+07  0.6571091E-07  0.1625075E+01 -0.3131978E+01  0.7569013E+08 -0.1570796E+01  0.5959499E+01 -0.1402199E+01
  0.1147368E+01  0.1946129E+07  0.1570796E+01  0.1104854E+00  0.2999696E+01  0.7148515E+06 -0.3141593E+01  0.1338704E+01  0.2890952E+01  0.7506195E+08 -0.1570796E+01  0.2225562E+01  0.9048271E+00
  0.1242105E+01  0.2065117E+07  0.1570796E+01  0.3221176E-01  0.1325818E+01  0.5692436E+06  0.3141593E+01  0.6423376E+00 -0.8542547E+00  0.3897152E+08  0.1570796E+01  0.2378287E+01  0.1623379E+01
  0.1336842E+01  0.2386685E+07 -0.1570796E+01  0.9504317E-01  0.2976444E+01  0.4934775E+06 -0.7915761E-08  0.1172526E+00  0.3108272E+01  0.2585586E+08  0.1570796E+01  0.3505019E+01  0.1624317E+01
  0.1431579E+01  0.9582988E+05 -0.1570797E+01  0.2816837E-01 -0.5880026E+00  0.1482881E+05 -0.2634230E-06  0.1631298E+00  0.1862253E+01  0.2775058E+08 -0.1570796E+01  0.3616909E+01 -0.1744467E+01
  0.1526316E+01  0.1873757E+07  0.1570796E+01  0.2736118E-01 -0.2533791E+01  0.2161803E+06 -0.3141593E+01  0.1148572E+00  0.2482787E+01  0.3468756E+07  0.1570796E+01  0.1635782E+01  0.1685673E+01
  0.1621053E+01  0.1843507E+07 -0.1570796E+01  0.7812500E-02  0.1570796E+01  0.1578102E+06 -0.3712925E-07  0.1074751E+00 -0.1904041E+01  0.1007887E+08  0.1570796E+01  0.2433691E+01  0.1790858E+01
  0.1715789E+01  0.8596434E+06  0.1570796E+01  0.2351874E-01 -0.2297439E+01  0.5428949E+05 -0.3141592E+01  0.6895838E-01  0.2441415E+01  0.9965348E+07 -0.1570796E+01  0.4007805E+01  0.1508378E+01
  0.1810526E+01  0.1111064E+06  0.1570796E+01  0.0000000E+00  0.0000000E+00  0.5144317E+04  0.3141591E+01  0.3634335E-01  0.2106608E+01  0.5029880E+07  0.1570796E+01  0.5031250E+01  0.1570796E+01
  0.1905263E+01  0.6899316E+06 -0.1570796E+01  0.8343753E-02  0.1212026E+01  0.2326595E+05  0.2938172E-06  0.2501012E-01  0.4876605E+00  0.8850412E+06 -0.1570796E+01  0.5153882E+00  0.1815775E+01
  0.2000000E+01  0.9118202E+06  0.1570796E+01  0.1746928E-01 -0.2677945E+01  0.2224749E+05 -0.3141593E+01  0.4423260E-01  0.3097423E+01  0.1259455E+07 -0.1570796E+01  0.5038911E+00  0.1051650E+01
Zone t="FKforce - beta =  20.000",I=    20,F=POINT
  0.2000000E+00  0.1676360E+07 -0.1570796E+01  0.6101528E+06 -0.1570794E+01  0.4284227E+08  0.6382423E-09  0.1323947E+07  0.1570763E+01  0.3009928E+09 -0.1570796E+01  0.4234826E+07 -0.3571575E-05
  0.2947368E+00  0.3372532E+07 -0.1570796E+01  0.1227578E+07 -0.1570798E+01  0.3876736E+08  0.5441111E-08  0.2492652E+07  0.1570789E+01  0.6038219E+09 -0.1570796E+01  0.1890329E+08  0.1210107E-05
  0.3894737E+00  0.4949220E+07 -0.1570796E+01  0.1801712E+07 -0.1570796E+01  0.3151072E+08  0.1090899E-07  0.3322049E+07  0.1570800E+01  0.9099556E+09 -0.1570796E+01  0.5150748E+08  0.1359026E-06
  0.4842105E+00  0.5315612E+07 -0.1570796E+01  0.1935609E+07 -0.1570796E+01  0.2097602E+08 -0.2011225E-07  0.3126290E+07  0.1570795E+01  0.1086716E+10 -0.1570796E+01  0.9948678E+08  0.1658512E-06
  0.5789474E+00  0.3400540E+07 -0.1570796E+01  0.1238849E+07 -0.1570796E+01  0.8905207E+07  0.1403673E-07  0.1673741E+07  0.1570801E+01  0.1001428E+10 -0.1570796E+01  0.1386747E+09  0.5408342E-08
  0.6736842E+00  0.5667274E+06  0.1570796E+01  0.2066245E+06  0.1570796E+01  0.1029534E+07 -0.3141593E+01  0.2188137E+06 -0.1570785E+01  0.6251183E+09 -0.1570796E+01  0.1255801E+09  0.1418417E-06
  0.7684210E+00  0.3963594E+07  0.1570796E+01  0.1446810E+07  0.1570796E+01  0.5145424E+07  0.3141593E+01  0.1080853E+07 -0.1570793E+01  0.1241622E+09 -0.1570797E+01  0.3574502E+08  0.5000697E-06
  0.8631579E+00  0.3287397E+07  0.1570796E+01  0.1202041E+07  0.1570796E+01  0.3111448E+07  0.3141593E+01  0.5090308E+06 -0.1570798E+01  0.2020335E+09  0.1570796E+01  0.7751350E+08 -0.3141593E+01
  0.9578947E+00  0.1136501E+07 -0.1570796E+01  0.4165562E+06 -0.1570796E+01  0.7947789E+06 -0.8539619E-07  0.4021638E+05  0.1570817E+01  0.1830168E+09  0.1570796E+01  0.9597941E+08  0.3141593E+01
  0.1052631E+01  0.3357370E+07 -0.1570796E+01  0.1234520E+07 -0.1570796E+01  0.1749374E+07  0.5805649E-07  0.2787243E+06 -0.1570788E+01  0.1562104E+08 -0.1570796E+01  0.1155858E+08  0.3676923E-06
  0.1147368E+01  0.9911650E+05  0.1570797E+01  0.3659989E+05  0.1570799E+01  0.3865907E+05  0.3141589E+01  0.1962857E+05  0.1570789E+01  0.8825445E+08 -0.1570796E+01  0.8350386E+08  0.4640504E-07
  0.1242105E+01  0.2649695E+07  0.1570796E+01  0.9837352E+06  0.1570796E+01  0.7748931E+06 -0.3141593E+01  0.8148238E+06  0.1570797E+01  0.6178065E+06 -0.1570792E+01  0.2001902E+07  0.3141591E+01
  0.1336842E+01  0.6246019E+06 -0.1570796E+01  0.2334813E+06 -0.1570797E+01  0.1368711E+06  0.1641028E-06  0.2560810E+06 -0.1570795E+01  0.3839302E+08  0.1570796E+01  0.6432413E+08 -0.3141593E+01
  0.1431579E+01  0.1659598E+07 -0.1570796E+01  0.6256526E+06 -0.1570796E+01  0.2718109E+06 -0.5029922E-07  0.8369388E+06 -0.1570796E+01  0.8501954E+07 -0.1570796E+01  0.2467986E+08  0.5571345E-07
  0.1526316E+01  0.1444566E+07  0.1570796E+01  0.5502768E+06  0.1570796E+01  0.1761175E+06 -0.3141593E+01  0.8520204E+06  0.1570797E+01  0.1255085E+08 -0.1570796E+01  0.3222649E+08  0.6145468E-07
  0.1621053E+01  0.4089226E+05 -0.1570796E+01  0.1577466E+05 -0.1570799E+01  0.3691896E+04  0.5290303E-06  0.2724901E+05 -0.1570798E+01  0.9627277E+07  0.1570796E+01  0.4083418E+08 -0.3141593E+01
  0.1715789E+01  0.8526378E+06 -0.1570796E+01  0.3339216E+06 -0.1570796E+01  0.5665432E+05  0.0000000E+00  0.6259919E+06 -0.1570796E+01  0.1055712E+07 -0.1570796E+01  0.1564350E+08 -0.1757919E-06
  0.1810526E+01  0.9096924E+06  0.1570796E+01  0.3627377E+06  0.1570796E+01  0.4418813E+05 -0.3141593E+01  0.7221618E+06  0.1570796E+01  0.2923965E+07 -0.1570796E+01  0.9135670E+07 -0.4104789E-07
  0.1905263E+01  0.5693932E+06 -0.1570796E+01  0.2319285E+06 -0.1570796E+01  0.2007586E+05  0.2310572E-06  0.4817275E+06 -0.1570796E+01  0.2853529E+07  0.1570796E+01  0.1930294E+08 -0.3141593E+01
  0.2000000E+01  0.2322151E+06  0.1570796E+01  0.9698267E+05  0.1570796E+01  0.5899935E+04  0.3141592E+01  0.2069421E+06  0.1570797E+01  0.1591580E+07 -0.1570796E+01  0.1801730E+08 -0.6937778E-08
Zone t="FKforce - beta =  40.000",I=    20,F=POINT
  0.2000000E+00  0.1372694E+07 -0.1570796E+01  0.1151830E+07 -0.1570798E+01  0.4303370E+08 -0.6354031E-09  0.2499978E+07  0.1570792E+01  0.2459955E+09 -0.1570796E+01  0.6504576E+07 -0.1162643E-05
  0.2947368E+00  0.2808820E+07 -0.1570796E+01  0.2356914E+07 -0.1570796E+01  0.3960549E+08 -0.9862899E-09  0.4792120E+07  0.1570808E+01  0.4982094E+09 -0.1570796E+01  0.2930849E+08  0.4734123E-06
  0.3894737E+00  0.4321344E+07 -0.1570796E+01  0.3626193E+07 -0.1570796E+01  0.3374739E+08  0.1388996E-08  0.6714644E+07  0.1570798E+01  0.7701506E+09 -0.1570796E+01  0.8189377E+08  0.3815919E-06
  0.4842105E+00  0.5213596E+07 -0.1570796E+01  0.4375178E+07 -0.1570796E+01  0.2523264E+08  0.8050090E-08  0.7145733E+07  0.1570792E+01  0.9729332E+09 -0.1570796E+01  0.1672240E+09  0.3289001E-07
  0.5789474E+00  0.4634136E+07 -0.1570796E+01  0.3889324E+07 -0.1570796E+01  0.1488128E+08 -0.3044933E-07  0.5392056E+07  0.1570796E+01  0.1007244E+10 -0.1570796E+01  0.2615710E+09  0.1328511E-06
  0.6736842E+00  0.2169104E+07 -0.1570796E+01  0.1820800E+07 -0.1570796E+01  0.4830492E+07  0.6469320E-08  0.2040119E+07  0.1570796E+01  0.8155883E+09 -0.1570796E+01  0.3065109E+09 -0.3352246E-06
  0.7684210E+00  0.1330279E+07  0.1570796E+01  0.1116969E+07  0.1570796E+01  0.2116024E+07  0.3141593E+01  0.9441279E+06 -0.1570796E+01  0.4449328E+09 -0.1570796E+01  0.2354567E+09  0.3357836E-07
  0.8631579E+00  0.3613738E+07  0.1570796E+01  0.3035457E+07  0.1570796E+01  0.4188179E+07  0.3141593E+01  0.1732207E+07 -0.1570796E+01  0.5918874E+08 -0.1570796E+01  0.4439272E+08  0.2252622E-07
  0.9578947E+00  0.2675688E+07  0.1570796E+01  0.2248730E+07  0.1570796E+01  0.2289118E+07 -0.3141593E+01  0.6891542E+06 -0.1570798E+01  0.1533977E+09  0.1570796E+01  0.1498858E+09 -0.3141593E+01
  0.1052631E+01  0.5974428E+06 -0.1570796E+01  0.5024763E+06 -0.1570796E+01  0.3803613E+06 -0.5134920E-08  0.3141922E+05  0.1570791E+01  0.1346765E+09  0.1570796E+01  0.1779637E+09 -0.3141593E+01
  0.1147368E+01  0.2416718E+07 -0.1570796E+01  0.2034509E+07 -0.1570796E+01  0.1149822E+07  0.9512342E-07  0.3067511E+06 -0.1570802E+01  0.1169837E+08  0.1570796E+01  0.2005457E+08  0.3141593E+01
  0.1242105E+01  0.7480885E+06 -0.1570796E+01  0.6305502E+06 -0.1570796E+01  0.2663118E+06  0.1466796E-07  0.2026108E+06 -0.1570796E+01  0.4782422E+08 -0.1570796E+01  0.1138030E+09  0.2416455E-07
  0.1336842E+01  0.1314431E+07  0.1570796E+01  0.1109626E+07  0.1570796E+01  0.3496903E+06 -0.3141593E+01  0.4794698E+06  0.1570796E+01  0.1809776E+08 -0.1570796E+01  0.5562507E+08 -0.6741565E-07
  0.1431579E+01  0.5906369E+06  0.1570796E+01  0.4995678E+06  0.1570796E+01  0.1170548E+06 -0.3141593E+01  0.2262515E+06  0.1570796E+01  0.1233431E+08  0.1570796E+01  0.5378212E+08 -0.3141593E+01
  0.1526316E+01  0.6448797E+06 -0.1570796E+01  0.5467329E+06 -0.1570796E+01  0.9475131E+05  0.1339856E-06  0.1716784E+06 -0.1570797E+01  0.5702731E+07  0.1570797E+01  0.3173741E+08  0.3141593E+01
  0.1621053E+01  0.1289855E+06 -0.1570796E+01  0.1096677E+06 -0.1570796E+01  0.1396486E+05 -0.5594399E-06  0.2300083E+05  0.1570793E+01  0.2788511E+07 -0.1570796E+01  0.2168602E+08 -0.2882041E-08
  0.1715789E+01  0.1536692E+06  0.1570796E+01  0.1311019E+06  0.1570796E+01  0.1217232E+05  0.3141592E+01  0.3315167E+06 -0.1570795E+01  0.5113600E+06 -0.1570796E+01  0.9692829E+07 -0.3868839E-07
  0.1810526E+01  0.1385598E+05  0.1570797E+01  0.1186967E+05  0.1570796E+01  0.7966943E+03  0.3141591E+01  0.1843826E+06  0.1570797E+01  0.2074204E+06 -0.1570793E+01  0.1165370E+06  0.3141563E+01
  0.1905263E+01  0.1137162E+06  0.1570797E+01  0.9788446E+05  0.1570796E+01  0.4705935E+04 -0.3141592E+01  0.4492773E+06  0.1570796E+01  0.4539472E+05  0.1570793E+01  0.1180065E+08  0.3141593E+01
  0.2000000E+01  0.2367809E+06 -0.1570796E+01  0.2049731E+06 -0.1570796E+01  0.6990893E+04 -0.2066372E-06  0.7116886E+06 -0.1570796E+01  0.7821826E+06  0.1570797E+01  0.1171177E+07 -0.8538417E-06
Zone t="FKforce - beta =  60.000",I=    20,F=POINT
  0.2000000E+00  0.9005122E+06 -0.1570796E+01  0.1559720E+07 -0.1570796E+01  0.4325200E+08 -0.9934512E-09  0.3386304E+07  0.1570791E+01  0.1610261E+09 -0.1570796E+01  0.5736327E+07 -0.3704461E-06
  0.2947368E+00  0.1878062E+07 -0.1570796E+01  0.3252766E+07 -0.1570797E+01  0.4057078E+08  0.3658729E-08  0.6623450E+07  0.1570803E+01  0.3296516E+09 -0.1570796E+01  0.2612324E+08  0.1459429E-06
  0.3894737E+00  0.3041938E+07 -0.1570796E+01  0.5268136E+07 -0.1570797E+01  0.3639312E+08  0.6010751E-08  0.9802403E+07  0.1570792E+01  0.5242820E+09 -0.1570796E+01  0.7507387E+08 -0.5244834E-06
  0.4842105E+00  0.4123456E+07 -0.1570796E+01  0.7139912E+07 -0.1570796E+01  0.3056916E+08 -0.1533408E-08  0.1180929E+08  0.1570796E+01  0.7039101E+09 -0.1570796E+01  0.1628164E+09  0.1082507E-06
  0.5789474E+00  0.4737104E+07 -0.1570796E+01  0.8199914E+07 -0.1570796E+01  0.2329647E+08 -0.3353512E-08  0.1170267E+08  0.1570796E+01  0.8196724E+09 -0.1570796E+01  0.2861294E+09  0.4805518E-07
  0.6736842E+00  0.4480926E+07 -0.1570796E+01  0.7752540E+07 -0.1570796E+01  0.1527695E+08 -0.3068348E-08  0.9244106E+07  0.1570796E+01  0.8283068E+09 -0.1570796E+01  0.4176267E+09  0.1017655E-07
  0.7684210E+00  0.3156995E+07 -0.1570796E+01  0.5457761E+07 -0.1570796E+01  0.7683928E+07 -0.3660237E-07  0.5254271E+07  0.1570798E+01  0.7123471E+09 -0.1570796E+01  0.5038090E+09 -0.1190927E-07
  0.8631579E+00  0.1032616E+07 -0.1570796E+01  0.1783171E+07 -0.1570796E+01  0.1829832E+07  0.2839229E-06  0.1341612E+07  0.1570799E+01  0.4973254E+09 -0.1570796E+01  0.4838867E+09 -0.1084965E-06
  0.9578947E+00  0.1079301E+07  0.1570796E+01  0.1860890E+07  0.1570796E+01  0.1410342E+07  0.3141593E+01  0.1075813E+07 -0.1570799E+01  0.2508166E+09 -0.1570796E+01  0.3317660E+09 -0.1284791E-06
  0.1052631E+01  0.2170253E+07  0.1570796E+01  0.3734029E+07  0.1570796E+01  0.2107392E+07  0.3141593E+01  0.1726209E+07 -0.1570796E+01  0.5393210E+08 -0.1570796E+01  0.9733844E+08 -0.4911985E-07
  0.1147368E+01  0.1773378E+07  0.1570796E+01  0.3042798E+07  0.1570796E+01  0.1284508E+07  0.3141593E+01  0.1342436E+07 -0.1570796E+01  0.4344880E+08  0.1570797E+01  0.1010701E+09 -0.3141593E+01
  0.1242105E+01  0.4952733E+06  0.1570796E+01  0.8468019E+06  0.1570796E+01  0.2677818E+06 -0.3141593E+01  0.4990063E+06 -0.1570792E+01  0.5083423E+08  0.1570796E+01  0.1598291E+09 -0.3141593E+01
  0.1336842E+01  0.4244141E+06 -0.1570796E+01  0.7224225E+06 -0.1570796E+01  0.1709752E+06 -0.2313247E-06  0.8030614E+06  0.1570796E+01  0.2081487E+08  0.1570796E+01  0.8994274E+08  0.3141593E+01
  0.1431579E+01  0.3825894E+06 -0.1570796E+01  0.6476341E+06 -0.1570796E+01  0.1143888E+06 -0.1707445E-07  0.1890185E+07  0.1570797E+01  0.5542664E+06  0.1570795E+01  0.9460153E+07  0.3141593E+01
  0.1526316E+01  0.2072245E+05 -0.1570796E+01  0.3484070E+05 -0.1570794E+01  0.4572229E+04  0.7261912E-05  0.1101016E+07  0.1570797E+01  0.5610954E+06 -0.1570801E+01  0.7143988E+06 -0.3141589E+01
  0.1621053E+01  0.1143003E+06 -0.1570796E+01  0.1906036E+06 -0.1570796E+01  0.1848201E+05 -0.5283853E-07  0.1392204E+07 -0.1570796E+01  0.2211739E+07  0.1570796E+01  0.1419933E+08  0.3141593E+01
  0.1715789E+01  0.3186457E+06 -0.1570796E+01  0.5261451E+06 -0.1570796E+01  0.3744857E+05 -0.1825420E-06  0.2266727E+07 -0.1570796E+01  0.1082662E+06  0.1570795E+01  0.1776630E+08 -0.2110738E-06
  0.1810526E+01  0.1304073E+05 -0.1570797E+01  0.2128099E+05 -0.1570797E+01  0.1103745E+04 -0.2654315E-05  0.7337746E+05 -0.1570797E+01  0.2276530E+07 -0.1570796E+01  0.4476008E+08  0.0000000E+00
  0.1905263E+01  0.3089612E+06  0.1570796E+01  0.4972429E+06  0.1570796E+01  0.1864802E+05 -0.3141593E+01  0.1509186E+07  0.1570796E+01  0.1262203E+07 -0.1570796E+01  0.8651964E+07 -0.3539659E-06
  0.2000000E+01  0.8974291E+05  0.1570796E+01  0.1420950E+06  0.1570796E+01  0.3822672E+04  0.3141593E+01  0.3912961E+06  0.1570796E+01  0.3874842E+06  0.1570796E+01  0.2358956E+08 -0.3141593E+01
Zone t="FKforce - beta =  80.000",I=    20,F=POINT
  0.2000000E+00  0.3137784E+06 -0.1570796E+01  0.1779497E+07 -0.1570797E+01  0.4339479E+08  0.8101491E-09  0.3864232E+07  0.1570794E+01  0.5602912E+08 -0.1570797E+01  0.2269632E+07 -0.8936782E-06
  0.2947368E+00  0.6624986E+06 -0.1570796E+01  0.3756930E+07 -0.1570796E+01  0.4120791E+08  0.2701620E-08  0.7657509E+07  0.1570802E+01  0.1155074E+09 -0.1570797E+01  0.1040774E+08 -0.7624656E-06
  0.3894737E+00  0.1108389E+07 -0.1570796E+01  0.6284516E+07 -0.1570797E+01  0.3818009E+08  0.3171646E-08  0.1173056E+08  0.1570796E+01  0.1870918E+09 -0.1570796E+01  0.3045506E+08  0.5438341E-06
  0.4842105E+00  0.1609556E+07 -0.1570796E+01  0.9123147E+07 -0.1570796E+01  0.3435353E+08  0.3297514E-08  0.1521387E+08  0.1570796E+01  0.2609646E+09 -0.1570796E+01  0.6859064E+08  0.3097521E-06
  0.5789474E+00  0.2107463E+07 -0.1570796E+01  0.1193837E+08 -0.1570797E+01  0.2983468E+08  0.2094878E-08  0.1736044E+08  0.1570795E+01  0.3259040E+09 -0.1570796E+01  0.1291845E+09 -0.9192278E-08
  0.6736842E+00  0.2528969E+07 -0.1570796E+01  0.1431247E+08 -0.1570796E+01  0.2481415E+08 -0.5352290E-08  0.1775597E+08  0.1570796E+01  0.3708174E+09 -0.1570796E+01  0.2120729E+09 -0.2873422E-08
  0.7684210E+00  0.2794808E+07 -0.1570796E+01  0.1579400E+08 -0.1570796E+01  0.1957046E+08 -0.1317355E-07  0.1647213E+08  0.1570796E+01  0.3868674E+09 -0.1570796E+01  0.3098621E+09  0.9051405E-08
  0.8631579E+00  0.2835582E+07 -0.1570796E+01  0.1599074E+08 -0.1570796E+01  0.1444910E+08  0.1622074E-08  0.1407618E+08  0.1570796E+01  0.3697576E+09 -0.1570796E+01  0.4064464E+09  0.1899082E-07
  0.9578947E+00  0.2613632E+07 -0.1570796E+01  0.1469602E+08 -0.1570796E+01  0.9814216E+07 -0.1671682E-07  0.1143746E+08  0.1570794E+01  0.3214519E+09 -0.1570796E+01  0.4783037E+09  0.3697965E-07
  0.1052631E+01  0.2144914E+07 -0.1570796E+01  0.1201306E+08 -0.1570796E+01  0.5979637E+07  0.3919552E-07  0.9352962E+07  0.1570796E+01  0.2504792E+09 -0.1570796E+01  0.4998563E+09  0.1959938E-07
  0.1147368E+01  0.1510743E+07 -0.1570796E+01  0.8417588E+07 -0.1570796E+01  0.3137856E+07 -0.5477466E-07  0.8135756E+07  0.1570796E+01  0.1702451E+09 -0.1570796E+01  0.4527808E+09 -0.3219687E-07
  0.1242105E+01  0.8480691E+06 -0.1570796E+01  0.4694004E+07 -0.1570796E+01  0.1312818E+07  0.6546036E-07  0.7403006E+07  0.1570796E+01  0.9548898E+08 -0.1570796E+01  0.3366402E+09  0.2325368E-07
  0.1336842E+01  0.3121532E+06 -0.1570796E+01  0.1713334E+07 -0.1570796E+01  0.3593381E+06 -0.2608964E-06  0.6271337E+07  0.1570796E+01  0.3795617E+08 -0.1570796E+01  0.1755282E+09 -0.4682296E-07
  0.1431579E+01  0.1858067E+05 -0.1570796E+01  0.1009289E+06 -0.1570792E+01  0.1583669E+05  0.5426482E-05  0.3959597E+07  0.1570796E+01  0.3018574E+07 -0.1570799E+01  0.1459224E+08  0.1524783E-05
  0.1526316E+01  0.1147422E+05  0.1570796E+01  0.6153925E+05  0.1570799E+01  0.7196174E+04  0.3141590E+01  0.4798592E+06  0.1570796E+01  0.1118328E+08  0.1570796E+01  0.9639755E+08  0.3141593E+01
  0.1621053E+01  0.1312522E+06 -0.1570796E+01  0.6931301E+06 -0.1570796E+01  0.6010968E+05  0.2193256E-06  0.3107585E+07 -0.1570796E+01  0.1164232E+08  0.1570796E+01  0.1274631E+09  0.3141593E+01
  0.1715789E+01  0.2875637E+06 -0.1570796E+01  0.1490690E+07 -0.1570796E+01  0.9531397E+05 -0.8965026E-08  0.5234432E+07 -0.1570796E+01  0.6582986E+07  0.1570796E+01  0.8716402E+08 -0.3141593E+01
  0.1810526E+01  0.3224852E+06 -0.1570796E+01  0.1635203E+07 -0.1570796E+01  0.7659555E+05  0.2231180E-07  0.4943355E+07 -0.1570797E+01  0.1916693E+07  0.1570796E+01  0.2010582E+08 -0.3141592E+01
  0.1905263E+01  0.2116523E+06 -0.1570796E+01  0.1045547E+07 -0.1570796E+01  0.3563879E+05  0.0000000E+00  0.2753148E+07 -0.1570796E+01  0.1634637E+06 -0.1570798E+01  0.2114611E+08 -0.2512283E-06
  0.2000000E+01  0.5162150E+05 -0.1570796E+01  0.2472966E+06 -0.1570796E+01  0.6092560E+04 -0.4007193E-07  0.4073020E+06 -0.1570796E+01  0.2375957E+06 -0.1570797E+01  0.1309510E+08 -0.4892096E-06
Zone t="FKforce - beta = 100.000",I=    20,F=POINT
  0.2000000E+00  0.3137785E+06  0.1570796E+01  0.1779497E+07 -0.1570796E+01  0.4339480E+08  0.6751241E-10  0.3864228E+07  0.1570802E+01  0.5602913E+08  0.1570797E+01  0.2269641E+07  0.3141592E+01
  0.2947368E+00  0.6624989E+06  0.1570796E+01  0.3756929E+07 -0.1570796E+01  0.4120788E+08 -0.1279716E-08  0.7657506E+07  0.1570792E+01  0.1155075E+09  0.1570796E+01  0.1040776E+08 -0.3141593E+01
  0.3894737E+00  0.1108389E+07  0.1570796E+01  0.6284517E+07 -0.1570796E+01  0.3818010E+08  0.4092446E-08  0.1173056E+08  0.1570784E+01  0.1870918E+09  0.1570796E+01  0.3045501E+08 -0.3141592E+01
  0.4842105E+00  0.1609557E+07  0.1570796E+01  0.9123145E+07 -0.1570796E+01  0.3435352E+08 -0.3183807E-08  0.1521387E+08  0.1570800E+01  0.2609647E+09  0.1570796E+01  0.6859066E+08 -0.3141593E+01
  0.5789474E+00  0.2107465E+07  0.1570796E+01  0.1193837E+08 -0.1570796E+01  0.2983468E+08  0.4189755E-08  0.1736044E+08  0.1570796E+01  0.3259043E+09  0.1570796E+01  0.1291845E+09 -0.3141593E+01
  0.6736842E+00  0.2528970E+07  0.1570796E+01  0.1431247E+08 -0.1570796E+01  0.2481414E+08 -0.7556177E-08  0.1775596E+08  0.1570795E+01  0.3708174E+09  0.1570796E+01  0.2120729E+09 -0.3141593E+01
  0.7684210E+00  0.2794809E+07  0.1570796E+01  0.1579399E+08 -0.1570796E+01  0.1957045E+08  0.0000000E+00  0.1647212E+08  0.1570795E+01  0.3868674E+09  0.1570796E+01  0.3098621E+09  0.3141593E+01
  0.8631579E+00  0.2835582E+07  0.1570796E+01  0.1599074E+08 -0.1570796E+01  0.1444909E+08  0.1676143E-07  0.1407618E+08  0.1570796E+01  0.3697576E+09  0.1570796E+01  0.4064465E+09 -0.3141593E+01
  0.9578947E+00  0.2613633E+07  0.1570796E+01  0.1469602E+08 -0.1570796E+01  0.9814216E+07 -0.1034851E-07  0.1143745E+08  0.1570797E+01  0.3214522E+09  0.1570796E+01  0.4783037E+09  0.3141593E+01
  0.1052631E+01  0.2144914E+07  0.1570796E+01  0.1201305E+08 -0.1570796E+01  0.5979638E+07 -0.1829124E-07  0.9352955E+07  0.1570796E+01  0.2504793E+09  0.1570796E+01  0.4998566E+09 -0.3141593E+01
  0.1147368E+01  0.1510743E+07  0.1570796E+01  0.8417582E+07 -0.1570796E+01  0.3137856E+07 -0.2240782E-07  0.8135752E+07  0.1570796E+01  0.1702451E+09  0.1570796E+01  0.4527810E+09 -0.3141593E+01
  0.1242105E+01  0.8480689E+06  0.1570796E+01  0.4693998E+07 -0.1570796E+01  0.1312816E+07  0.1785284E-07  0.7402994E+07  0.1570797E+01  0.9548898E+08  0.1570796E+01  0.3366403E+09  0.3141593E+01
  0.1336842E+01  0.3121531E+06  0.1570796E+01  0.1713332E+07 -0.1570797E+01  0.3593373E+06 -0.1114247E-06  0.6271322E+07  0.1570796E+01  0.3795618E+08  0.1570796E+01  0.1755282E+09  0.3141593E+01
  0.1431579E+01  0.1858065E+05  0.1570796E+01  0.1009298E+06 -0.1570797E+01  0.1583659E+05  0.1205839E-05  0.3959580E+07  0.1570796E+01  0.3018583E+07  0.1570796E+01  0.1459227E+08  0.3141593E+01
  0.1526316E+01  0.1147381E+05 -0.1570795E+01  0.6153634E+05  0.1570797E+01  0.7196051E+04  0.3141588E+01  0.4798399E+06  0.1570795E+01  0.1118327E+08 -0.1570796E+01  0.9639737E+08  0.3241790E-07
  0.1621053E+01  0.1312527E+06  0.1570797E+01  0.6931336E+06 -0.1570796E+01  0.6011002E+05  0.1949550E-06  0.3107604E+07 -0.1570796E+01  0.1164230E+08 -0.1570796E+01  0.1274628E+09  0.5393729E-08
  0.1715789E+01  0.2875642E+06  0.1570796E+01  0.1490692E+07 -0.1570796E+01  0.9531405E+05  0.1434403E-06  0.5234438E+07 -0.1570796E+01  0.6582965E+07 -0.1570796E+01  0.8716367E+08 -0.7744052E-07
  0.1810526E+01  0.3224856E+06  0.1570796E+01  0.1635203E+07 -0.1570796E+01  0.7659564E+05  0.7649750E-07  0.4943357E+07 -0.1570796E+01  0.1916675E+07 -0.1570796E+01  0.2010551E+08 -0.6590234E-06
  0.1905263E+01  0.2116525E+06  0.1570796E+01  0.1045546E+07 -0.1570796E+01  0.3563882E+05  0.7535455E-07  0.2753144E+07 -0.1570796E+01  0.1634741E+06  0.1570798E+01  0.2114629E+08  0.3141593E+01
  0.2000000E+01  0.5162146E+05  0.1570796E+01  0.2472961E+06 -0.1570796E+01  0.6092528E+04 -0.3005410E-07  0.4072998E+06 -0.1570798E+01  0.2375989E+06  0.1570796E+01  0.1309515E+08  0.3141593E+01
Zone t="FKforce - beta = 120.000",I=    20,F=POINT
  0.2000000E+00  0.9005126E+06  0.1570796E+01  0.1559720E+07 -0.1570797E+01  0.4325200E+08 -0.2348157E-08  0.3386305E+07  0.1570774E+01  0.1610261E+09  0.1570796E+01  0.5736320E+07  0.3141593E+01
  0.2947368E+00  0.1878062E+07  0.1570796E+01  0.3252766E+07 -0.1570797E+01  0.4057079E+08  0.3851293E-09  0.6623446E+07  0.1570786E+01  0.3296518E+09  0.1570796E+01  0.2612325E+08  0.3141593E+01
  0.3894737E+00  0.3041939E+07  0.1570796E+01  0.5268136E+07 -0.1570796E+01  0.3639312E+08  0.5152073E-08  0.9802401E+07  0.1570795E+01  0.5242821E+09  0.1570796E+01  0.7507388E+08 -0.3141593E+01
  0.4842105E+00  0.4123457E+07  0.1570796E+01  0.7139912E+07 -0.1570796E+01  0.3056916E+08  0.0000000E+00  0.1180928E+08  0.1570795E+01  0.7039105E+09  0.1570796E+01  0.1628165E+09  0.3141593E+01
  0.5789474E+00  0.4737104E+07  0.1570796E+01  0.8199914E+07 -0.1570796E+01  0.2329647E+08 -0.6707024E-08  0.1170265E+08  0.1570797E+01  0.8196724E+09  0.1570796E+01  0.2861295E+09  0.3141593E+01
  0.6736842E+00  0.4480926E+07  0.1570796E+01  0.7752540E+07 -0.1570796E+01  0.1527695E+08 -0.2863792E-07  0.9244100E+07  0.1570796E+01  0.8283073E+09  0.1570796E+01  0.4176267E+09 -0.3141593E+01
  0.7684210E+00  0.3156994E+07  0.1570796E+01  0.5457759E+07 -0.1570796E+01  0.7683924E+07  0.4473626E-07  0.5254242E+07  0.1570798E+01  0.7123471E+09  0.1570796E+01  0.5038091E+09 -0.3141593E+01
  0.8631579E+00  0.1032614E+07  0.1570796E+01  0.1783167E+07 -0.1570796E+01  0.1829829E+07  0.9179479E-07  0.1341622E+07  0.1570796E+01  0.4973252E+09  0.1570796E+01  0.4838865E+09  0.3141593E+01
  0.9578947E+00  0.1079303E+07 -0.1570796E+01  0.1860894E+07  0.1570796E+01  0.1410345E+07 -0.3141593E+01  0.1075808E+07 -0.1570796E+01  0.2508165E+09  0.1570796E+01  0.3317656E+09  0.3141593E+01
  0.1052631E+01  0.2170254E+07 -0.1570796E+01  0.3734029E+07  0.1570796E+01  0.2107392E+07 -0.3141593E+01  0.1726206E+07 -0.1570796E+01  0.5393198E+08  0.1570796E+01  0.9733817E+08 -0.3141593E+01
  0.1147368E+01  0.1773378E+07 -0.1570796E+01  0.3042797E+07  0.1570796E+01  0.1284508E+07 -0.3141593E+01  0.1342430E+07 -0.1570797E+01  0.4344890E+08 -0.1570796E+01  0.1010703E+09 -0.4823377E-07
  0.1242105E+01  0.4952721E+06 -0.1570796E+01  0.8467990E+06  0.1570796E+01  0.2677814E+06  0.3141593E+01  0.4990084E+06 -0.1570797E+01  0.5083426E+08 -0.1570796E+01  0.1598291E+09  0.1955214E-07
  0.1336842E+01  0.4244153E+06  0.1570796E+01  0.7224232E+06 -0.1570796E+01  0.1709753E+06  0.1941983E-06  0.8030640E+06  0.1570797E+01  0.2081487E+08 -0.1570796E+01  0.8994262E+08  0.9728424E-07
  0.1431579E+01  0.3825894E+06  0.1570796E+01  0.6476334E+06 -0.1570796E+01  0.1143888E+06 -0.3585633E-06  0.1890184E+07  0.1570796E+01  0.5542715E+06 -0.1570796E+01  0.9460069E+07  0.2906956E-06
  0.1526316E+01  0.2072245E+05  0.1570794E+01  0.3484027E+05 -0.1570798E+01  0.4572537E+04  0.4271425E-05  0.1101013E+07  0.1570796E+01  0.5610995E+06  0.1570803E+01  0.7143980E+06  0.5074202E-05
  0.1621053E+01  0.1143009E+06  0.1570796E+01  0.1906046E+06 -0.1570796E+01  0.1848225E+05 -0.5812166E-06  0.1392209E+07 -0.1570796E+01  0.2211736E+07 -0.1570796E+01  0.1419930E+08  0.1364504E-06
  0.1715789E+01  0.3186455E+06  0.1570796E+01  0.5261448E+06 -0.1570796E+01  0.3744848E+05  0.2607750E-07  0.2266726E+07 -0.1570796E+01  0.1082529E+06 -0.1570790E+01  0.1776637E+08 -0.3141592E+01
  0.1810526E+01  0.1303972E+05  0.1570795E+01  0.2127907E+05 -0.1570796E+01  0.1103656E+04  0.2875740E-05  0.7337133E+05 -0.1570796E+01  0.2276530E+07  0.1570796E+01  0.4476008E+08 -0.3141593E+01
  0.1905263E+01  0.3089615E+06 -0.1570796E+01  0.4972439E+06  0.1570796E+01  0.1864804E+05 -0.3141593E+01  0.1509187E+07  0.1570796E+01  0.1262199E+07  0.1570796E+01  0.8651888E+07 -0.3141593E+01
  0.2000000E+01  0.8974251E+05 -0.1570796E+01  0.1420937E+06  0.1570796E+01  0.3822638E+04 -0.3141592E+01  0.3912924E+06  0.1570796E+01  0.3874871E+06 -0.1570796E+01  0.2358961E+08 -0.1483704E-06
Zone t="FKforce - beta = 140.000",I=    20,F=POINT
  0.2000000E+00  0.1372694E+07  0.1570796E+01  0.1151830E+07 -0.1570796E+01  0.4303371E+08 -0.9077187E-10  0.2499976E+07  0.1570796E+01  0.2459955E+09  0.1570796E+01  0.6504574E+07 -0.3141590E+01
  0.2947368E+00  0.2808820E+07  0.1570796E+01  0.2356912E+07 -0.1570796E+01  0.3960549E+08 -0.1578064E-08  0.4792114E+07  0.1570792E+01  0.4982094E+09  0.1570796E+01  0.2930846E+08  0.3141591E+01
  0.3894737E+00  0.4321344E+07  0.1570796E+01  0.3626193E+07 -0.1570796E+01  0.3374739E+08 -0.1296397E-07  0.6714637E+07  0.1570798E+01  0.7701507E+09  0.1570796E+01  0.8189376E+08  0.3141592E+01
  0.4842105E+00  0.5213596E+07  0.1570796E+01  0.4375177E+07 -0.1570796E+01  0.2523263E+08  0.3715428E-08  0.7145736E+07  0.1570795E+01  0.9729335E+09  0.1570796E+01  0.1672240E+09 -0.3141592E+01
  0.5789474E+00  0.4634135E+07  0.1570796E+01  0.3889321E+07 -0.1570796E+01  0.1488127E+08  0.2414948E-07  0.5392036E+07  0.1570796E+01  0.1007244E+10  0.1570796E+01  0.2615709E+09  0.3141593E+01
  0.6736842E+00  0.2169101E+07  0.1570796E+01  0.1820796E+07 -0.1570796E+01  0.4830488E+07 -0.5337193E-07  0.2040120E+07  0.1570799E+01  0.8155883E+09  0.1570796E+01  0.3065106E+09  0.3141593E+01
  0.7684210E+00  0.1330283E+07 -0.1570796E+01  0.1116971E+07  0.1570796E+01  0.2116029E+07 -0.3141593E+01  0.9441266E+06 -0.1570800E+01  0.4449325E+09  0.1570796E+01  0.2354565E+09 -0.3141593E+01
  0.8631579E+00  0.3613740E+07 -0.1570796E+01  0.3035456E+07  0.1570796E+01  0.4188178E+07  0.3141593E+01  0.1732207E+07 -0.1570796E+01  0.5918849E+08  0.1570796E+01  0.4439252E+08  0.3141593E+01
  0.9578947E+00  0.2675684E+07 -0.1570796E+01  0.2248728E+07  0.1570796E+01  0.2289115E+07  0.3141593E+01  0.6891514E+06 -0.1570794E+01  0.1533979E+09 -0.1570796E+01  0.1498859E+09 -0.6463248E-08