VARIABLES="w (rad/s)"  
"A   1   1" "B   1   1"
"A   1   2" "B   1   2"
"A   1   3" "B   1   3"
"A   1   4" "B   1   4"
"A   1   5" "B   1   5"
"A   1   6" "B   1   6"
Zone t="Motion of body    1 in DoF   1",I=    20,F=POINT
  0.2000000E+00  0.5840346E+07  0.8273507E+04  0.7031250E-01  0.0000000E+00 -0.2296875E+01 -0.2759522E+00  0.9375000E-01 -0.1123047E-02  0.2378054E+09  0.1301486E+07  0.2125000E+02  0.8125000E-01
  0.2947368E+00  0.6326074E+07  0.1016523E+06 -0.2343750E-01 -0.3741776E-02 -0.1414062E+01 -0.6729441E+00  0.6250000E+00  0.3914474E-01  0.2869903E+09  0.1510962E+08  0.1325000E+02 -0.1777632E+01
  0.3894737E+00  0.6653433E+07  0.4536174E+06 -0.1484375E+00  0.1825658E-01  0.9843750E+00  0.8154605E+00 -0.8750000E+00  0.1764803E+00  0.2980704E+09  0.6366835E+08 -0.1250000E+01 -0.4478947E+01
  0.4842105E+00  0.6337760E+07  0.9766779E+06 -0.5468750E-01 -0.1513158E-01 -0.2343750E-01  0.7338815E+00  0.6250000E-01 -0.4085526E+00  0.2045624E+09  0.1312671E+09 -0.7500000E+00  0.3813158E+01
  0.5789474E+00  0.5954622E+07  0.1311558E+07 -0.7812500E-02  0.0000000E+00 -0.1640625E+00  0.2939967E+00 -0.2187500E+00 -0.1175987E+00  0.5742953E+08  0.1610746E+09  0.2750000E+01  0.1223026E+02
  0.6736842E+00  0.6283094E+07  0.1878127E+07  0.1562500E-01 -0.5263158E-01 -0.7812500E-02 -0.1894737E+00 -0.3125000E-01 -0.2105263E-01 -0.2787383E+08  0.1218938E+09 -0.1100000E+02  0.5894737E+01
  0.7684210E+00  0.5655190E+07  0.3149221E+07  0.1171875E-01  0.6003289E-02 -0.1757812E+00 -0.8884868E+00 -0.1562500E-01  0.1921052E+00 -0.7754412E+07  0.9297780E+08 -0.5000000E+00 -0.8836842E+01
  0.8631579E+00  0.4795795E+07  0.3854818E+07  0.2343750E-01  0.1348684E-01 -0.5351562E+00 -0.6608552E+00  0.4687500E-01  0.6743421E-01 -0.1822853E+08  0.9316952E+08 -0.1637500E+02  0.1078947E+01
  0.9578947E+00  0.3598082E+07  0.4978326E+07  0.9765625E-02  0.7483552E-02 -0.5664062E+00 -0.4415296E+00 -0.3906250E-01  0.1347039E+00 -0.2135563E+08  0.7025877E+08  0.6875000E+01 -0.6226315E+01
  0.1052631E+01  0.2326732E+07  0.5084630E+07  0.0000000E+00  0.0000000E+00  0.3759766E+00 -0.8717105E+00  0.9179688E-01  0.0000000E+00 -0.2096255E+08  0.5885550E+08 -0.5875000E+01  0.2631579E+00
  0.1147368E+01  0.1258746E+07  0.4904398E+07 -0.1171875E-01  0.6722862E-02  0.2207031E+00  0.1344572E-01 -0.1708984E-01 -0.1254934E+00 -0.2018355E+08  0.2571033E+08  0.1281250E+01 -0.1147368E+01
  0.1242105E+01  0.8457948E+06  0.4193876E+07  0.0000000E+00 -0.4851974E-02  0.5366211E+00 -0.2224630E+01 -0.7812500E-02  0.8733553E-01 -0.8458494E+06  0.4106169E+08 -0.6718750E+00 -0.2484210E+01
  0.1336842E+01  0.6867766E+06  0.3586828E+07  0.1953125E-02  0.0000000E+00 -0.4116211E+00 -0.4569284E+00  0.3125000E-01 -0.5222039E-02  0.3446494E+07  0.2573868E+08 -0.8437500E+00  0.1838158E+01
  0.1431579E+01  0.8508457E+06  0.2977256E+07  0.9765625E-03  0.2796053E-02 -0.5302734E+00 -0.9953948E+00  0.7812500E-02  0.5592105E-02  0.1510816E+08  0.2095876E+08  0.4687500E+00 -0.5368421E+00
  0.1526316E+01  0.9133896E+06  0.2161914E+07  0.2441406E-02 -0.5962171E-02  0.9042969E+00  0.5850381E+00  0.6250000E-01  0.1043380E-01  0.2894649E+08  0.1904751E+07 -0.6875000E+00 -0.1907895E+00
  0.1621053E+01  0.8356829E+06  0.2018635E+07  0.9765625E-03  0.4749177E-02 -0.3710938E-01 -0.1368604E+00  0.2343750E-01 -0.1642424E-01  0.2615607E+08 -0.7990016E+07 -0.6875000E+00  0.1215789E+01
  0.1715789E+01  0.8980536E+06  0.1934923E+07  0.1953125E-02  0.0000000E+00  0.1562500E+00 -0.3863773E+00  0.5468750E-01 -0.6335770E-02  0.2836932E+08 -0.9662867E+07  0.5937500E+00  0.4289474E+00
  0.1810526E+01  0.9290621E+06  0.1771547E+07  0.3906250E-02  0.4420230E-02 -0.6054688E-01 -0.4068822E+00 -0.5078125E-01  0.5249023E-02  0.3510891E+08 -0.7517882E+07  0.8125000E+00  0.4526316E+00
  0.1905263E+01  0.9948171E+06  0.1558913E+07  0.9765625E-03  0.0000000E+00  0.1816406E+00  0.2802541E-01 -0.7812500E-02 -0.6163266E-02  0.3708587E+08 -0.4413180E+07 -0.9375000E-01  0.7144737E+00
  0.2000000E+01  0.1095061E+07  0.1370381E+07  0.0000000E+00 -0.1953125E-02  0.1953125E-01 -0.1585083E+00  0.3906250E-01  0.1025391E-01  0.3917292E+08 -0.3080175E+07  0.1562500E+00 -0.2500000E+00
Zone t="Motion of body    1 in DoF   2",I=    20,F=POINT
  0.2000000E+00 -0.1562500E-01  0.3662110E-04  0.3862963E+08  0.2273323E+05 -0.6474609E+00 -0.9460450E-04  0.6629448E+08 -0.7322815E+04  0.1812500E+01  0.9960937E-02  0.2628750E+03 -0.3982422E+00
  0.2947368E+00  0.0000000E+00 -0.1439145E-03  0.4262769E+08  0.3424700E+06 -0.2032227E+01 -0.4101562E-02  0.6948323E+08 -0.4080805E+05 -0.4500000E+01  0.1496710E+00  0.1212500E+03  0.5556250E+01
  0.3894737E+00  0.7812500E-02 -0.1521382E-02  0.4902787E+08  0.2331242E+07 -0.1635742E+01 -0.7454769E-01  0.7611086E+08  0.3349533E+06  0.3500000E+01  0.6815789E+00  0.3450000E+02  0.1662566E+02
  0.4842105E+00 -0.7812500E-02  0.0000000E+00  0.5324439E+08  0.9062717E+07  0.5507812E+00  0.1262541E+00  0.8652108E+08  0.4085208E+07 -0.3562500E+01 -0.2723684E+00 -0.6375000E+02 -0.4766447E+02
  0.5789474E+00 -0.1562500E-01  0.9046053E-02  0.4554375E+08  0.1981399E+08 -0.4746094E+00 -0.5959087E+00  0.9098638E+08  0.1551114E+08 -0.4562500E+01 -0.1990132E+01  0.1850000E+02 -0.1641316E+03
  0.6736842E+00 -0.3906250E-02  0.5263158E-02  0.3076687E+08  0.2644380E+08 -0.3715820E+00 -0.7250000E+00  0.8236578E+08  0.2948627E+08  0.2812500E+00  0.2821053E+01  0.1181250E+02 -0.7738948E+02
  0.7684210E+00  0.1953125E-02 -0.2401316E-01  0.1998237E+08  0.2888031E+08  0.2641602E+00  0.5125308E+00  0.7004848E+08  0.4154920E+08  0.3757812E+01  0.7876315E+01 -0.6553125E+02  0.1033526E+03
  0.8631579E+00  0.0000000E+00 -0.6743421E-02  0.1136250E+08  0.2892154E+08 -0.3173828E-01  0.1626850E+00  0.5428348E+08  0.5094753E+08  0.2187500E+00 -0.4207895E+01  0.5907031E+02  0.1126421E+03
  0.9578947E+00  0.3662109E-02  0.7483552E-02  0.6891663E+07  0.2647027E+08 -0.3186035E-01 -0.3975637E-01  0.4192887E+08  0.5405435E+08  0.3671875E+00 -0.6525658E+01  0.4429688E+02  0.1870289E+03
  0.1052631E+01 -0.3906250E-02  0.1233553E-01  0.4290191E+07  0.2469228E+08 -0.8056641E-01  0.2158717E+00  0.3200446E+08  0.5729584E+08 -0.7812500E+00  0.3618421E+01 -0.1559375E+02  0.3289474E+01
  0.1147368E+01 -0.3906250E-02 -0.8963816E-02  0.2838041E+07  0.2185516E+08 -0.9350586E-01 -0.1145688E+00  0.2391736E+08  0.5572426E+08  0.3437500E+00 -0.1972039E+01 -0.6193750E+02 -0.8533553E+01
  0.1242105E+01  0.0000000E+00 -0.2425987E-02  0.2019255E+07  0.1977154E+08  0.2465820E-01  0.9089869E-01  0.1753400E+08  0.5521269E+08 -0.7812500E-02  0.1018914E+01  0.1603125E+02  0.3295461E+02
  0.1336842E+01  0.0000000E+00 -0.2611020E-02  0.1563931E+07  0.1693026E+08 -0.2807617E-01 -0.4120515E-01  0.1244697E+08  0.5171910E+08  0.1562500E-01  0.5613692E-01  0.3337500E+02 -0.3392237E+02
  0.1431579E+01  0.0000000E+00  0.4194079E-02 -0.3091589E+06  0.9822900E+07  0.9036064E-01  0.2296258E+00 -0.1047668E+07  0.4302125E+08 -0.1428223E+00 -0.4921053E+00 -0.5712500E+02  0.4100132E+02
  0.1526316E+01 -0.1953125E-02 -0.8943257E-02  0.5171486E+07  0.1467511E+08  0.5407715E-01  0.9318221E-01  0.1598650E+08  0.3825212E+08  0.1398438E+01  0.2012233E+00  0.1596875E+02 -0.1011482E+03
  0.1621053E+01  0.9765625E-03  0.0000000E+00  0.4192052E+07  0.1294584E+08  0.1701660E+00  0.2377062E-01  0.1241266E+08  0.3728592E+08  0.5937500E+00  0.1000493E+01  0.3588281E+02 -0.2388520E+02
  0.1715789E+01  0.4882812E-03  0.1675576E-02  0.4134553E+07  0.1102011E+08  0.1204834E+00  0.3249046E-01  0.1079620E+08  0.3311919E+08 -0.6328125E+00  0.1457751E+00 -0.7710938E+01  0.4066957E+02
  0.1810526E+01  0.4882812E-03  0.0000000E+00  0.4257265E+07  0.9115022E+07 -0.9277344E-01 -0.5249023E-03  0.9939768E+07  0.2848724E+08  0.0000000E+00  0.1237664E-01 -0.1625000E+02 -0.5884210E+02
  0.1905263E+01  0.1953125E-02  0.0000000E+00  0.4377383E+07  0.6535790E+07 -0.1125488E+00  0.5779515E-01  0.9156473E+07  0.2200848E+08  0.2812500E+00  0.4837582E-01  0.1400000E+02 -0.3350584E+02
  0.2000000E+01  0.1953125E-02 -0.3540039E-02  0.6072556E+07 -0.3685909E+06 -0.4833984E-01 -0.7080078E-02  0.1113347E+08  0.3300848E+07 -0.5156250E+00 -0.1171875E-01  0.4675000E+02  0.8964844E+01
Zone t="Motion of body    1 in DoF   3",I=    20,F=POINT
  0.2000000E+00 -0.2500000E+00  0.4375000E-01 -0.8437500E+00 -0.5312500E-01  0.1191146E+09  0.6182128E+07  0.3051250E+03 -0.8750000E-01 -0.4000000E+02 -0.1420000E+02 -0.2925000E+02 -0.1250000E+01
  0.2947368E+00 -0.1093750E+00  0.1657895E+00  0.3375000E+01  0.1842105E-01  0.1028894E+09  0.1359381E+08  0.2425000E+02 -0.1363158E+01 -0.5240000E+03  0.3595789E+02 -0.1125000E+02 -0.2947368E+00
  0.3894737E+00 -0.6484375E+00 -0.1947368E+00  0.1703125E+01 -0.1472697E+01  0.8296947E+08  0.1961821E+08 -0.6281250E+02 -0.4710197E+02 -0.4720000E+03 -0.4673684E+02  0.6812500E+01  0.2921052E+01
  0.4842105E+00 -0.5234375E+00 -0.4615131E+00  0.1117188E+01 -0.1028947E+01  0.6536104E+08  0.2204594E+08 -0.5281250E+02  0.4878421E+02 -0.2400000E+02 -0.6149473E+02  0.1625000E+01  0.1053158E+02
  0.5789474E+00 -0.6601562E+00 -0.3618421E-01 -0.1914062E+00 -0.1420230E+01  0.5411967E+08  0.1993678E+08 -0.1809375E+02 -0.2713816E+01  0.4700000E+02 -0.1511053E+03  0.2937500E+01 -0.2894737E+01
  0.6736842E+00 -0.9199219E+00 -0.1473684E+00  0.3066406E+00  0.1042105E+01  0.5081405E+08  0.1563125E+08  0.1006250E+02 -0.9578948E+01 -0.1820000E+03 -0.2155790E+02  0.2656250E+00  0.8505263E+01
  0.7684210E+00  0.4804688E+00  0.7384046E+00 -0.2109375E+00 -0.3421875E+00  0.5120615E+08  0.1179219E+08  0.1187500E+01 -0.2089144E+01  0.1210000E+03 -0.1237158E+03  0.1531250E+01 -0.2401316E+01
  0.8631579E+00  0.2929688E+00  0.1281250E+00 -0.1171875E+00  0.1834211E+01  0.5255882E+08  0.8482715E+07  0.2618750E+02 -0.1739803E+01 -0.5600000E+02 -0.1031474E+03  0.3750000E+00  0.6257895E+01
  0.9578947E+00  0.3515625E-01  0.3816612E+00 -0.4257812E+00  0.8456414E+00  0.5436298E+08  0.5694726E+07 -0.1928125E+02  0.4018668E+01 -0.2000000E+01  0.2825789E+02 -0.1250000E+00 -0.3771710E+01
  0.1052631E+01 -0.1328125E+00  0.1356908E+00  0.2187500E+00  0.4358552E+00  0.5559316E+08  0.3677258E+07 -0.6162500E+02 -0.1056743E+01  0.2890000E+03 -0.9855263E+02 -0.2187500E+01 -0.4671052E+01
  0.1147368E+01  0.9906250E+01  0.1098516E+02  0.1148438E+01 -0.1048766E+01  0.3434401E+08 -0.1381463E+08  0.4959375E+02  0.8636637E+01 -0.2590000E+03  0.1443390E+04 -0.1000000E+01  0.7063487E+01
  0.1242105E+01 -0.5351562E+00  0.2302262E+01  0.6640625E-01 -0.9703947E-02  0.6365474E+08  0.7446492E+06 -0.3912500E+02 -0.7314350E+00 -0.3740000E+03 -0.3699145E+02 -0.9375000E+00  0.1086842E+01
  0.1336842E+01 -0.1250000E+00  0.3237664E+00  0.9570312E-01  0.9138568E-01  0.6385331E+08  0.4045427E+06 -0.7612500E+02 -0.1179528E+01 -0.4200000E+02 -0.1650164E+02 -0.1500000E+01  0.5013158E+00
  0.1431579E+01  0.7617188E-01  0.2698191E+00  0.4882812E-01 -0.6710526E-01  0.6453868E+08  0.1762945E+06 -0.8312500E+01  0.2063836E+00  0.2580000E+03  0.2246908E+02  0.1156250E+01  0.2348684E+00
  0.1526316E+01 -0.6445312E-01 -0.1397384E+00  0.7812500E-01  0.1565070E-01  0.6515120E+08  0.4126393E+05 -0.4843750E+02  0.2256542E+00  0.1000000E+03 -0.6460758E+01  0.4375000E+00  0.2802220E+00
  0.1621053E+01 -0.3017578E+00 -0.8548520E-01  0.3613281E-01 -0.7915296E-03  0.6562073E+08 -0.3131925E+05 -0.1025000E+02  0.5609966E-01 -0.1700000E+03 -0.7709498E+01 -0.6250000E+00 -0.2659540E+00
  0.1715789E+01 -0.4882812E-02  0.5445621E-01  0.2646484E+00 -0.3476819E-01  0.6586338E+08 -0.2255043E+06 -0.2281250E+02  0.2678826E+00  0.1200000E+02  0.4738528E+01  0.8046875E+00  0.2010691E+00
  0.1810526E+01 -0.3413086E+00  0.6033614E-01 -0.9033203E-01 -0.7514391E-01  0.6670985E+08 -0.4335037E+06 -0.5606250E+02  0.3164885E+00 -0.9000000E+02 -0.8486842E-01 -0.2656250E+00 -0.2351562E+00
  0.1905263E+01 -0.1823730E+00 -0.6977282E-02 -0.5075684E+00  0.5349249E-02  0.6688346E+08 -0.1469063E+06 -0.8818750E+02 -0.5791144E-01 -0.1020000E+03 -0.5299013E+01 -0.8476562E+00  0.3721217E-01
  0.2000000E+01  0.1110840E-01  0.2734375E-01 -0.2833557E+00  0.3366089E-01  0.6706517E+08 -0.4566135E+05 -0.9437500E+01  0.2352295E+00 -0.1280000E+03  0.1058594E+01 -0.6406250E+00 -0.2968750E+00
Zone t="Motion of body    1 in DoF   4",I=    20,F=POINT
  0.2000000E+00  0.2734375E-01 -0.1220703E-04  0.6324104E+08 -0.1128169E+05 -0.6250000E+00 -0.9292603E-03  0.1977147E+10  0.3658012E+04  0.1000000E+03 -0.3076172E-02 -0.4680625E+03  0.1922993E+02
  0.2947368E+00 -0.1953125E-01  0.2158717E-03  0.6570939E+08 -0.1014264E+06 -0.6593750E+01  0.2698396E-02  0.1980918E+10  0.1208444E+05  0.1920000E+03  0.2014803E-01  0.8500000E+01 -0.2807685E+03
  0.3894737E+00 -0.3906250E-02 -0.7131476E-04  0.7121643E+08 -0.8300317E+05 -0.2990625E+02  0.4171913E-02  0.1986891E+10 -0.1196567E+05 -0.2180000E+03 -0.1064967E-01 -0.7215000E+03  0.1801358E+03
  0.4842105E+00  0.0000000E+00 -0.9457236E-03  0.8093274E+08  0.2429143E+07 -0.1668750E+02  0.4752261E-01  0.1999293E+10  0.1098212E+07 -0.9600000E+02  0.7565789E-02  0.1090375E+04  0.5420888E+02
  0.5789474E+00  0.1562500E-01  0.2261513E-02  0.8689610E+08  0.1190705E+08  0.4437500E+01  0.4992290E+00  0.2015695E+10  0.9345048E+07 -0.5600000E+02  0.7236842E+00 -0.6950000E+02 -0.3546414E+03
  0.6736842E+00  0.7812500E-02 -0.1052632E-01  0.8103623E+08  0.2476103E+08  0.1703125E+02 -0.2072369E+00  0.2022582E+10  0.2768571E+08 -0.5800000E+02  0.6568421E+01 -0.1616875E+04 -0.4757474E+03
  0.7684210E+00  0.1953125E-01 -0.1200658E-01  0.7059250E+08  0.3651916E+08 -0.1303125E+02  0.1215666E+01  0.2019052E+10  0.5265766E+08  0.4000000E+02 -0.1632895E+01  0.1031938E+04 -0.5353013E+03
  0.8631579E+00  0.3906250E-02 -0.6743421E-02  0.5618148E+08  0.4595107E+08 -0.9375000E+00  0.9331208E+00  0.2001029E+10  0.8130242E+08  0.1800000E+02  0.1348684E+01 -0.3717500E+03 -0.6452105E+03
  0.9578947E+00 -0.8007812E-01 -0.7483552E-02  0.4438810E+08  0.4940763E+08  0.2875000E+01  0.2173972E+01  0.1978953E+10  0.1014061E+09  0.2200000E+02  0.4190789E+01  0.5279688E+03  0.1677872E+04
  0.1052631E+01  0.6250000E-01  0.4111842E-02  0.3464953E+08  0.5252264E+08  0.4500000E+01  0.2903988E+00  0.1955427E+10  0.1229151E+09  0.6200000E+02  0.1118421E+02 -0.1150000E+02 -0.3019737E+03
  0.1147368E+01  0.7812500E-02 -0.4481908E-02  0.2673654E+08  0.5049412E+08 -0.4375000E+01  0.1543457E+01  0.1930365E+10  0.1297583E+09 -0.1800000E+02 -0.5378290E-01  0.2005000E+03  0.2796711E+03
  0.1242105E+01 -0.7812500E-01  0.4851974E-02  0.2069079E+08  0.4826402E+08  0.2125000E+01 -0.6216591E-02  0.1906675E+10  0.1359438E+09  0.7200000E+02 -0.8442434E+00 -0.1935000E+03 -0.4619855E+03
  0.1336842E+01 -0.4687500E-01  0.0000000E+00  0.1719408E+08  0.4022226E+08 -0.4093750E+01 -0.2428248E+00  0.1885523E+10  0.1239744E+09  0.5600000E+02  0.1483059E+01  0.6181250E+02 -0.3095625E+03
  0.1431579E+01  0.1953125E-02  0.7828948E-01  0.2581862E+08  0.7996486E+07  0.2531250E+01  0.3215460E-01  0.1857663E+10  0.3026814E+08  0.2000000E+01 -0.4473684E-01  0.4896875E+02 -0.3722105E+03
  0.1526316E+01  0.3125000E-01 -0.3577303E-01  0.1609979E+08  0.6122793E+08  0.3125000E-01 -0.4464176E+00  0.1903961E+10  0.1547709E+09 -0.7600000E+02  0.3672697E+01 -0.9612500E+02 -0.5776628E+03
  0.1621053E+01  0.5859375E-02 -0.1899671E-01  0.1093759E+08  0.4691250E+08  0.1437500E+01  0.2336991E+00  0.1877301E+10  0.1344145E+09  0.2400000E+02  0.1139803E+00  0.3469062E+03 -0.1315079E+03
  0.1715789E+01 -0.1660156E-01  0.6702302E-02  0.9619316E+07  0.3834545E+08 -0.1218750E+01  0.2914454E+00  0.1867038E+10  0.1146599E+09  0.2060000E+03 -0.7573602E+00 -0.2343906E+03 -0.1000520E+03
  0.1810526E+01  0.1367188E-01 -0.7072368E-02  0.9047150E+07  0.3096491E+08 -0.2515625E+02 -0.7769936E-03  0.1861066E+10  0.9663086E+08 -0.1600000E+02 -0.5481085E-01 -0.1711875E+03 -0.2741816E+03
  0.1905263E+01  0.1562500E-01  0.0000000E+00  0.8822269E+07  0.2151138E+08 -0.6562500E+00 -0.1248352E+00  0.1856987E+10  0.7225726E+08  0.3800000E+02  0.4093339E+00 -0.2572188E+03 -0.6954210E+02
  0.2000000E+01  0.0000000E+00  0.9765625E-03  0.1513113E+08 -0.7428759E+06 -0.8125000E+01  0.8642578E-01  0.1865524E+10  0.9799672E+07 -0.1220000E+03  0.7812500E-01  0.3968750E+02 -0.6289062E+02
Zone t="Motion of body    1 in DoF   5",I=    20,F=POINT
  0.2000000E+00  0.2331678E+09  0.1280633E+07  0.2100000E+02 -0.3750000E-01 -0.5220000E+03 -0.1843750E+02 -0.1320000E+03 -0.1625000E+00  0.1274201E+12  0.2014557E+09 -0.6632000E+04  0.1030000E+02
  0.2947368E+00  0.2819162E+09  0.1489196E+08  0.8000000E+01 -0.1473684E+00 -0.2920000E+03 -0.1142105E+02  0.1360000E+03  0.4715789E+01  0.1342042E+12  0.2213872E+10  0.6400000E+03  0.5894737E+00
  0.3894737E+00  0.2933164E+09  0.6287259E+08  0.3000000E+01  0.1947368E+00 -0.1140000E+03 -0.1935684E+03 -0.2000000E+03  0.0000000E+00  0.1354693E+12  0.8841693E+10  0.7200000E+03 -0.8069894E+03
  0.4842105E+00  0.2011515E+09  0.1297591E+09  0.1000000E+02  0.0000000E+00 -0.2220000E+03 -0.9829473E+02 -0.1600000E+02 -0.4745263E+02  0.1239903E+12  0.1779669E+11  0.1920000E+03  0.7747368E+01
  0.5789474E+00  0.5597784E+08  0.1594140E+09  0.1000000E+01 -0.5789474E+01 -0.2730000E+03 -0.7005263E+02 -0.1880000E+03  0.2200000E+02  0.1069645E+12  0.2355447E+11  0.3416000E+04  0.1370947E+04
  0.6736842E+00 -0.2761782E+08  0.1208461E+09  0.0000000E+00 -0.2694737E+01 -0.9800000E+02 -0.2560000E+02  0.3780000E+03 -0.2694737E+01  0.9141758E+11  0.2363042E+11  0.1844000E+04 -0.8030316E+03
  0.7684210E+00 -0.6780310E+07  0.9339573E+08  0.2500000E+00 -0.3842105E+00 -0.2900000E+02 -0.7664999E+02 -0.1720000E+03 -0.5763157E+01  0.8414174E+11  0.1758296E+11 -0.2140000E+03  0.1143410E+04
  0.8631579E+00 -0.1744588E+08  0.9513226E+08 -0.1500000E+01  0.6042105E+01  0.6700000E+02 -0.1726316E+02 -0.1080000E+03 -0.5178947E+01  0.8445019E+11  0.1200357E+11  0.2480000E+03 -0.2793179E+04
  0.9578947E+00 -0.1952421E+08  0.7365010E+08  0.3250000E+01  0.6705263E+01 -0.8700000E+02  0.6872894E+02  0.2400000E+02 -0.2083421E+02  0.8579050E+11  0.8271801E+10  0.6680000E+03  0.7088420E+03
  0.1052631E+01 -0.1700742E+08  0.6902006E+08  0.1000000E+01 -0.5263157E+00  0.9700000E+02 -0.1144737E+02 -0.1240000E+03  0.2263158E+02  0.8698681E+11  0.5192198E+10  0.7720000E+03  0.1082105E+04
  0.1147368E+01 -0.1663779E+08  0.7036653E+08  0.7500000E+00 -0.2438158E+01  0.3520000E+03  0.6597368E+01  0.9600000E+02  0.3650066E+02  0.8076327E+11  0.1925105E+10  0.7160000E+03  0.3396211E+03
  0.1242105E+01 -0.1720672E+08  0.5350538E+07 -0.4375000E+00  0.1552632E+00 -0.2370000E+03 -0.2806382E+03 -0.2800000E+02  0.6753947E+01  0.9808911E+11 -0.2518337E+09  0.2320000E+03  0.6210526E+01
  0.1336842E+01 -0.6161634E+06  0.3298715E+06  0.3750000E+00 -0.8355263E-01 -0.2400000E+02 -0.3415214E+01  0.4000000E+01  0.1399507E+01  0.9692615E+11  0.2436134E+09 -0.8200000E+02  0.2707105E+03
  0.1431579E+01  0.7457826E+07 -0.1145416E+08 -0.1250000E+00 -0.8052632E+00  0.7500000E+02  0.1635132E+02 -0.6000000E+02 -0.2236842E+00  0.9745506E+11 -0.1720262E+09 -0.1010000E+03  0.4021842E+03
  0.1526316E+01  0.8996550E+07 -0.1058614E+08  0.1125000E+01  0.1907895E+00  0.1180000E+03 -0.4354770E+02  0.6000000E+02 -0.3815790E+00  0.9770481E+11 -0.4783846E+09 -0.1370000E+03  0.5342105E+01
  0.1621053E+01  0.1997587E+08 -0.5707960E+07  0.1375000E+01 -0.1266447E+00 -0.2590000E+03 -0.3292763E+01  0.7200000E+02 -0.9118421E+00  0.9813717E+11 -0.1275342E+09  0.1300000E+02 -0.1483263E+03
  0.1715789E+01  0.2760539E+08 -0.7045728E+07  0.1937500E+01  0.0000000E+00  0.2300000E+02  0.6052179E+01  0.1600000E+02  0.8645970E+00  0.9844116E+11 -0.1868801E+09  0.6450000E+03  0.6348421E+02
  0.1810526E+01  0.3237872E+08 -0.8734417E+07  0.1593750E+01  0.1357895E+01  0.2000000E+01  0.1888322E+01 -0.2000000E+02  0.1414474E+00  0.9932561E+11 -0.5463644E+09 -0.3925000E+03 -0.1326210E+03
  0.1905263E+01  0.3651370E+08 -0.9542810E+07 -0.1130859E+01 -0.5358552E+00 -0.2300000E+02  0.1655942E+00  0.3240000E+03  0.7740131E+00  0.9952322E+11 -0.1456428E+09  0.3182500E+03 -0.1224132E+03
  0.2000000E+01  0.3940151E+08 -0.9550239E+07 -0.1546875E+01  0.2500000E+00 -0.2400000E+02  0.5664062E+00  0.1840000E+03 -0.1402344E+01  0.9969743E+11 -0.3465889E+08 -0.1166016E+03 -0.2550000E+02
Zone t="Motion of body    1 in DoF   6",I=    20,F=POINT
  0.2000000E+00  0.0000000E+00 -0.3662110E-04  0.2330000E+03  0.2084308E+01 -0.1562500E+01 -0.5035400E-04  0.1218875E+04  0.7513602E+01 -0.5840000E+03  0.1464844E-03  0.5707324E+11  0.2623017E+06
  0.2947368E+00 -0.1000000E+01  0.0000000E+00  0.1850000E+03  0.7830099E+01 -0.1968750E+01  0.1007401E-02  0.2133750E+03  0.1787547E+02  0.1440000E+04  0.1294079E+01  0.6029660E+11  0.1780930E+08
  0.3894737E+00 -0.5000000E+00 -0.2434210E-01  0.2060000E+03 -0.2683717E+02 -0.9125000E+01  0.6846217E-02  0.2220000E+03 -0.1404144E+03 -0.2764000E+04  0.3407895E+00  0.6667827E+11  0.3490555E+09
  0.4842105E+00  0.1000000E+01 -0.1815789E+00  0.5800000E+02  0.1743158E+02 -0.1218750E+02  0.2496710E+00 -0.9407500E+03 -0.3854013E+03  0.2740000E+04  0.1404210E+02  0.7851546E+11  0.3284005E+10
  0.5789474E+00 -0.2500000E+01 -0.5789474E+00 -0.5800000E+02 -0.7063158E+02  0.5250000E+01  0.1917763E+01  0.9741250E+03  0.8467105E+01  0.2804000E+04 -0.2454737E+03  0.8993480E+11  0.1694037E+11
  0.6736842E+00 -0.1000000E+01  0.6736842E+00 -0.2930000E+03  0.1792000E+03  0.1875000E+01 -0.3536842E+01 -0.1458625E+04  0.3210105E+03  0.9920000E+03  0.2802527E+03  0.7368081E+11  0.4120224E+11
  0.7684210E+00  0.1250000E+00  0.1152632E+01 -0.1650000E+03  0.9221052E+01 -0.9101562E+00  0.1728947E+01 -0.2969844E+03  0.4435710E+03 -0.8040000E+03  0.1343200E+04  0.4279124E+11  0.4880450E+11
  0.8631579E+00  0.9375000E-01 -0.1294737E+01 -0.2500000E+02  0.1242947E+03  0.9453125E+00 -0.1996053E+01 -0.6733125E+03  0.7217079E+03  0.1685000E+03 -0.1760842E+03  0.3069705E+11  0.4793152E+11
  0.9578947E+00 -0.2000000E+01  0.1436842E+01  0.9950000E+02  0.1187789E+03  0.1875000E+00 -0.1077631E+01  0.2449375E+03  0.6495723E+02 -0.1100000E+03  0.6494526E+03  0.1833087E+11  0.4920983E+11
  0.1052631E+01  0.7500000E+00  0.5263157E+00 -0.3000000E+01 -0.1189474E+03 -0.1562500E-01 -0.1513158E+01  0.1526250E+03 -0.6517762E+03  0.1510000E+03  0.3263158E+03  0.1243056E+11  0.4253982E+11
  0.1147368E+01 -0.1000000E+01  0.2868421E+00 -0.8250000E+01  0.6769474E+02 -0.6250000E-01  0.1416283E+01  0.2306250E+02 -0.4334901E+02 -0.5600000E+02  0.8031579E+02  0.9032508E+10  0.4131575E+11
  0.1242105E+01  0.1000000E+01  0.0000000E+00  0.1500000E+02  0.1055789E+02 -0.1093750E+00  0.4706414E+00  0.9053125E+02  0.1790766E+03  0.1500000E+02  0.9564211E+02  0.7318764E+10  0.3514356E+11
  0.1336842E+01 -0.1000000E+01  0.6684210E+00  0.7250000E+01  0.4277895E+02  0.0000000E+00  0.8877467E-01 -0.6771875E+02  0.5006996E+03 -0.6100000E+02  0.1360237E+03  0.4890696E+10  0.3234740E+11
  0.1431579E+01 -0.2500000E+00 -0.9842106E+00  0.1600000E+02  0.4938948E+02  0.3125000E-01 -0.6710526E-01  0.3311250E+03  0.2813053E+03  0.2650000E+02 -0.2419368E+03  0.3371993E+10  0.2381639E+11
  0.1526316E+01 -0.3750000E+00  0.3815789E+01 -0.4650000E+02 -0.1007368E+03 -0.6835938E+00  0.6588199E+00 -0.3173672E+03 -0.1970736E+03  0.3985000E+03  0.1154276E+03  0.1076090E+11  0.2704474E+11
  0.1621053E+01  0.1875000E+00 -0.2026316E+00  0.5525000E+02  0.5268421E+02  0.2890625E+00 -0.4115954E+00  0.1120312E+03  0.2969059E+03 -0.1925000E+03 -0.2257316E+03  0.8250695E+10  0.2408354E+11
  0.1715789E+01  0.6250000E-01 -0.2010691E+01 -0.9375000E+01 -0.3345789E+02  0.7109375E+00 -0.1340460E-01 -0.5776562E+02 -0.4556895E+02 -0.6000000E+02 -0.4375263E+02  0.8131621E+10  0.2097509E+11
  0.1810526E+01  0.0000000E+00 -0.3394737E+00 -0.2050000E+02 -0.6698947E+02 -0.2031250E+00  0.3536184E-01  0.1285000E+03 -0.2875024E+03 -0.1185000E+03 -0.1810526E+01  0.8342441E+10  0.1728749E+11
  0.1905263E+01  0.1250000E+00  0.3572368E+00 -0.6000000E+01 -0.1571842E+02 -0.1273438E+01  0.5767886E-01  0.4831250E+02 -0.3241552E+02  0.7000000E+02  0.8502236E+02  0.8500931E+10  0.1265469E+11
  0.2000000E+01  0.0000000E+00 -0.3750000E+00  0.1250000E+02 -0.3100000E+02  0.9375000E-01  0.6308594E+00 -0.3196875E+02 -0.1293242E+03  0.7490000E+03 -0.2331250E+03  0.1075513E+11  0.1758439E+10
